<?xml version="1.0" encoding="UTF-8"?>

<!-- generated on 2023-07-27 09:52:19 by Eclipse SUMO sumo Version 1.12.0
<configuration xmlns:xsi="http://www.w3.org/2001/XMLSchema-instance" xsi:noNamespaceSchemaLocation="http://sumo.dlr.de/xsd/sumoConfiguration.xsd">

    <input>
        <net-file value="../../data_generation/sq.net.xml"/>
        <route-files value="../../data_generation/sq.rou.xml"/>
    </input>

    <output>
        <tripinfo-output value="tripinfo.xml"/>
        <statistic-output value="statistic.xml"/>
    </output>

    <time>
        <begin value="0"/>
        <end value="3600"/>
    </time>

    <processing>
        <time-to-teleport value="-1"/>
    </processing>

    <traci_server>
        <remote-port value="43151"/>
    </traci_server>

    <random_number>
        <seed value="1395"/>
    </random_number>

    <gui_only>
        <gui-settings-file value="../../data_generation/view_HY_0402.xml"/>
    </gui_only>

</configuration>
-->

<tripinfos xmlns:xsi="http://www.w3.org/2001/XMLSchema-instance" xsi:noNamespaceSchemaLocation="http://sumo.dlr.de/xsd/tripinfo_file.xsd">
    <tripinfo id="22" depart="22.00" departLane="478_4way_291to4way_271_0" departPos="5.10" departSpeed="0.00" departDelay="0.00" arrival="32.00" arrivalLane="478_4way_291to4way_271_0" arrivalPos="85.60" arrivalSpeed="13.05" duration="10.00" routeLength="80.50" waitingTime="0.00" waitingCount="0" stopTime="0.00" timeLoss="3.49" rerouteNo="0" devices="tripinfo_22" vType="DEFAULT_VEHTYPE" speedFactor="1.00" vaporized=""/>
    <tripinfo id="18" depart="20.00" departLane="359_4way_230to4way_210_0" departPos="5.10" departSpeed="0.00" departDelay="2.00" arrival="38.00" arrivalLane="322_4way_210to4way_190_0" arrivalPos="85.60" arrivalSpeed="12.36" duration="18.00" routeLength="180.50" waitingTime="0.00" waitingCount="0" stopTime="0.00" timeLoss="3.91" rerouteNo="0" devices="tripinfo_18" vType="DEFAULT_VEHTYPE" speedFactor="0.96" vaporized=""/>
    <tripinfo id="27" depart="27.00" departLane="41_3way_180to3way_200_0" departPos="5.10" departSpeed="0.00" departDelay="0.00" arrival="53.00" arrivalLane="54_3way_220to4way_221_0" arrivalPos="85.60" arrivalSpeed="13.99" duration="26.00" routeLength="275.13" waitingTime="0.00" waitingCount="0" stopTime="0.00" timeLoss="5.38" rerouteNo="0" devices="tripinfo_27" vType="DEFAULT_VEHTYPE" speedFactor="1.03" vaporized=""/>
    <tripinfo id="7" depart="7.00" departLane="77_3way_359to3way_339_0" departPos="5.10" departSpeed="0.00" departDelay="0.00" arrival="56.00" arrivalLane="55_3way_259to3way_239_0" arrivalPos="85.60" arrivalSpeed="12.25" duration="49.00" routeLength="580.50" waitingTime="0.00" waitingCount="0" stopTime="0.00" timeLoss="4.89" rerouteNo="0" devices="tripinfo_7" vType="DEFAULT_VEHTYPE" speedFactor="0.95" vaporized=""/>
    <tripinfo id="9" depart="9.00" departLane="733_4way_76to4way_75_0" departPos="5.10" departSpeed="0.00" departDelay="0.00" arrival="77.00" arrivalLane="731_4way_75to4way_74_0" arrivalPos="85.60" arrivalSpeed="12.56" duration="68.00" routeLength="180.50" waitingTime="46.00" waitingCount="1" stopTime="0.00" timeLoss="53.48" rerouteNo="0" devices="tripinfo_9" vType="DEFAULT_VEHTYPE" speedFactor="0.91" vaporized=""/>
    <tripinfo id="26" depart="26.00" departLane="115_3way_394to3way_395_0" departPos="5.10" departSpeed="0.00" departDelay="0.00" arrival="97.00" arrivalLane="530_4way_318to4way_298_0" arrivalPos="85.60" arrivalSpeed="13.18" duration="71.00" routeLength="875.13" waitingTime="0.00" waitingCount="0" stopTime="0.00" timeLoss="8.62" rerouteNo="0" devices="tripinfo_26" vType="DEFAULT_VEHTYPE" speedFactor="1.03" vaporized=""/>
    <tripinfo id="93" depart="93.00" departLane="628_4way_369to4way_349_0" departPos="5.10" departSpeed="0.00" departDelay="0.00" arrival="126.00" arrivalLane="547_4way_309to4way_308_0" arrivalPos="85.60" arrivalSpeed="13.77" duration="33.00" routeLength="375.13" waitingTime="0.00" waitingCount="0" stopTime="0.00" timeLoss="5.36" rerouteNo="0" devices="tripinfo_93" vType="DEFAULT_VEHTYPE" speedFactor="1.00" vaporized=""/>
    <tripinfo id="0" depart="0.00" departLane="516_4way_292to4way_291_0" departPos="5.10" departSpeed="0.00" departDelay="0.00" arrival="131.00" arrivalLane="686_4way_50to4way_49_0" arrivalPos="85.60" arrivalSpeed="6.03" duration="131.00" routeLength="1474.93" waitingTime="8.00" waitingCount="1" stopTime="0.00" timeLoss="23.11" rerouteNo="0" devices="tripinfo_0" vType="DEFAULT_VEHTYPE" speedFactor="1.00" vaporized=""/>
    <tripinfo id="14" depart="14.00" departLane="716_4way_66to4way_86_0" departPos="5.10" departSpeed="0.00" departDelay="0.00" arrival="137.00" arrivalLane="315_4way_187to4way_188_0" arrivalPos="85.60" arrivalSpeed="12.79" duration="123.00" routeLength="775.13" waitingTime="52.00" waitingCount="1" stopTime="0.00" timeLoss="63.38" rerouteNo="0" devices="tripinfo_14" vType="DEFAULT_VEHTYPE" speedFactor="0.95" vaporized=""/>
    <tripinfo id="16" depart="16.00" departLane="320_4way_209to4way_189_0" departPos="5.10" departSpeed="0.00" departDelay="0.00" arrival="137.00" arrivalLane="473_4way_28to4way_27_0" arrivalPos="85.60" arrivalSpeed="11.96" duration="121.00" routeLength="1075.13" waitingTime="21.00" waitingCount="1" stopTime="0.00" timeLoss="34.45" rerouteNo="0" devices="tripinfo_16" vType="DEFAULT_VEHTYPE" speedFactor="0.90" vaporized=""/>
    <tripinfo id="67" depart="67.00" departLane="628_4way_369to4way_349_0" departPos="5.10" departSpeed="0.00" departDelay="0.00" arrival="137.00" arrivalLane="355_4way_229to4way_209_0" arrivalPos="85.60" arrivalSpeed="11.31" duration="70.00" routeLength="780.50" waitingTime="0.00" waitingCount="0" stopTime="0.00" timeLoss="5.88" rerouteNo="0" devices="tripinfo_67" vType="DEFAULT_VEHTYPE" speedFactor="0.88" vaporized=""/>
    <tripinfo id="72" depart="73.00" departLane="326_4way_192to4way_212_0" departPos="5.10" departSpeed="0.00" departDelay="1.00" arrival="137.00" arrivalLane="520_4way_293to4way_294_0" arrivalPos="85.60" arrivalSpeed="14.73" duration="64.00" routeLength="675.13" waitingTime="7.00" waitingCount="1" stopTime="0.00" timeLoss="20.51" rerouteNo="0" devices="tripinfo_72" vType="DEFAULT_VEHTYPE" speedFactor="1.15" vaporized=""/>
    <tripinfo id="23" depart="23.00" departLane="92_3way_383to4way_363_0" departPos="5.10" departSpeed="0.00" departDelay="0.00" arrival="138.00" arrivalLane="416_4way_242to4way_241_0" arrivalPos="85.60" arrivalSpeed="11.56" duration="115.00" routeLength="875.13" waitingTime="28.00" waitingCount="1" stopTime="0.00" timeLoss="42.04" rerouteNo="0" devices="tripinfo_23" vType="DEFAULT_VEHTYPE" speedFactor="0.87" vaporized=""/>
    <tripinfo id="47" depart="47.00" departLane="357_4way_21to4way_41_0" departPos="5.10" departSpeed="0.00" departDelay="0.00" arrival="138.00" arrivalLane="235_4way_142to4way_143_0" arrivalPos="85.60" arrivalSpeed="12.16" duration="91.00" routeLength="775.13" waitingTime="16.00" waitingCount="1" stopTime="0.00" timeLoss="27.66" rerouteNo="0" devices="tripinfo_47" vType="DEFAULT_VEHTYPE" speedFactor="0.90" vaporized=""/>
    <tripinfo id="25" depart="25.00" departLane="426_4way_246to4way_247_0" departPos="5.10" departSpeed="0.00" departDelay="0.00" arrival="155.00" arrivalLane="355_4way_229to4way_209_0" arrivalPos="85.60" arrivalSpeed="12.29" duration="130.00" routeLength="475.13" waitingTime="76.00" waitingCount="2" stopTime="0.00" timeLoss="93.08" rerouteNo="0" devices="tripinfo_25" vType="DEFAULT_VEHTYPE" speedFactor="0.95" vaporized=""/>
    <tripinfo id="37" depart="37.00" departLane="27_3way_16to3way_15_0" departPos="5.10" departSpeed="0.00" departDelay="0.00" arrival="159.00" arrivalLane="183_4way_93to4way_113_0" arrivalPos="85.60" arrivalSpeed="13.50" duration="122.00" routeLength="775.13" waitingTime="52.00" waitingCount="1" stopTime="0.00" timeLoss="65.38" rerouteNo="0" devices="tripinfo_37" vType="DEFAULT_VEHTYPE" speedFactor="0.99" vaporized=""/>
    <tripinfo id="30" depart="30.00" departLane="107_3way_391to3way_390_0" departPos="5.10" departSpeed="0.00" departDelay="0.00" arrival="176.00" arrivalLane="49_3way_220to3way_200_0" arrivalPos="85.60" arrivalSpeed="14.24" duration="146.00" routeLength="1983.70" waitingTime="0.00" waitingCount="0" stopTime="0.00" timeLoss="9.35" rerouteNo="0" devices="tripinfo_30" vType="DEFAULT_VEHTYPE" speedFactor="1.05" vaporized=""/>
    <tripinfo id="167" depart="167.00" departLane="697_4way_54to4way_74_0" departPos="5.10" departSpeed="0.00" departDelay="0.00" arrival="177.00" arrivalLane="697_4way_54to4way_74_0" arrivalPos="85.60" arrivalSpeed="11.27" duration="10.00" routeLength="80.50" waitingTime="0.00" waitingCount="0" stopTime="0.00" timeLoss="3.00" rerouteNo="0" devices="tripinfo_167" vType="DEFAULT_VEHTYPE" speedFactor="0.85" vaporized=""/>
    <tripinfo id="108" depart="108.00" departLane="242_4way_165to4way_145_0" departPos="5.10" departSpeed="0.00" departDelay="0.00" arrival="180.00" arrivalLane="414_4way_25to4way_24_0" arrivalPos="85.60" arrivalSpeed="11.01" duration="72.00" routeLength="775.13" waitingTime="0.00" waitingCount="0" stopTime="0.00" timeLoss="7.71" rerouteNo="0" devices="tripinfo_108" vType="DEFAULT_VEHTYPE" speedFactor="0.88" vaporized=""/>
    <tripinfo id="160" depart="160.00" departLane="90_3way_382to4way_362_0" departPos="5.10" departSpeed="0.00" departDelay="0.00" arrival="190.00" arrivalLane="90_3way_382to4way_362_0" arrivalPos="85.60" arrivalSpeed="4.95" duration="30.00" routeLength="80.50" waitingTime="17.00" waitingCount="1" stopTime="0.00" timeLoss="23.39" rerouteNo="0" devices="tripinfo_160" vType="DEFAULT_VEHTYPE" speedFactor="0.88" vaporized=""/>
    <tripinfo id="156" depart="156.00" departLane="81_3way_379to3way_359_0" departPos="5.10" departSpeed="0.00" departDelay="0.00" arrival="191.00" arrivalLane="67_3way_319to3way_299_0" arrivalPos="85.60" arrivalSpeed="11.60" duration="35.00" routeLength="380.50" waitingTime="0.00" waitingCount="0" stopTime="0.00" timeLoss="4.19" rerouteNo="0" devices="tripinfo_156" vType="DEFAULT_VEHTYPE" speedFactor="0.91" vaporized=""/>
    <tripinfo id="118" depart="118.00" departLane="745_4way_87to4way_86_0" departPos="5.10" departSpeed="0.00" departDelay="0.00" arrival="196.00" arrivalLane="159_4way_85to4way_105_0" arrivalPos="85.60" arrivalSpeed="13.89" duration="78.00" routeLength="275.13" waitingTime="49.00" waitingCount="1" stopTime="0.00" timeLoss="58.40" rerouteNo="0" devices="tripinfo_118" vType="DEFAULT_VEHTYPE" speedFactor="1.05" vaporized=""/>
    <tripinfo id="115" depart="115.00" departLane="455_4way_261to4way_262_0" departPos="5.10" departSpeed="0.00" departDelay="0.00" arrival="197.00" arrivalLane="380_4way_242to4way_222_0" arrivalPos="85.60" arrivalSpeed="12.09" duration="82.00" routeLength="275.13" waitingTime="47.00" waitingCount="1" stopTime="0.00" timeLoss="59.48" rerouteNo="0" devices="tripinfo_115" vType="DEFAULT_VEHTYPE" speedFactor="0.92" vaporized=""/>
    <tripinfo id="20" depart="20.00" departLane="424_4way_246to4way_245_0" departPos="5.10" departSpeed="0.00" departDelay="0.00" arrival="198.00" arrivalLane="579_4way_324to4way_344_0" arrivalPos="85.60" arrivalSpeed="11.41" duration="178.00" routeLength="675.13" waitingTime="103.00" waitingCount="3" stopTime="0.00" timeLoss="122.70" rerouteNo="0" devices="tripinfo_20" vType="DEFAULT_VEHTYPE" speedFactor="0.89" vaporized=""/>
    <tripinfo id="53" depart="53.00" departLane="393_4way_229to4way_230_0" departPos="5.10" departSpeed="0.00" departDelay="0.00" arrival="198.00" arrivalLane="532_4way_50to4way_30_0" arrivalPos="85.60" arrivalSpeed="16.42" duration="145.00" routeLength="1075.13" waitingTime="52.00" waitingCount="3" stopTime="0.00" timeLoss="83.13" rerouteNo="0" devices="tripinfo_53" vType="DEFAULT_VEHTYPE" speedFactor="1.27" vaporized=""/>
    <tripinfo id="148" depart="148.00" departLane="118_4way_375to3way_395_0" departPos="5.10" departSpeed="0.00" departDelay="0.00" arrival="199.00" arrivalLane="117_3way_395to3way_396_0" arrivalPos="85.60" arrivalSpeed="13.78" duration="51.00" routeLength="175.13" waitingTime="28.00" waitingCount="1" stopTime="0.00" timeLoss="37.92" rerouteNo="0" devices="tripinfo_148" vType="DEFAULT_VEHTYPE" speedFactor="1.07" vaporized=""/>
    <tripinfo id="34" depart="36.00" departLane="120_3way_396to4way_376_0" departPos="5.10" departSpeed="0.00" departDelay="2.00" arrival="200.00" arrivalLane="296_4way_176to4way_175_0" arrivalPos="85.60" arrivalSpeed="13.04" duration="164.00" routeLength="1175.13" waitingTime="55.00" waitingCount="2" stopTime="0.00" timeLoss="74.41" rerouteNo="0" devices="tripinfo_34" vType="DEFAULT_VEHTYPE" speedFactor="0.96" vaporized=""/>
    <tripinfo id="51" depart="51.00" departLane="756_4way_98to4way_97_0" departPos="5.10" departSpeed="0.00" departDelay="0.00" arrival="201.00" arrivalLane="752_4way_94to4way_93_0" arrivalPos="85.60" arrivalSpeed="9.75" duration="150.00" routeLength="480.50" waitingTime="84.00" waitingCount="3" stopTime="0.00" timeLoss="103.06" rerouteNo="0" devices="tripinfo_51" vType="DEFAULT_VEHTYPE" speedFactor="0.74" vaporized=""/>
    <tripinfo id="78" depart="78.00" departLane="355_4way_209to4way_229_0" departPos="5.10" departSpeed="0.00" departDelay="0.00" arrival="205.00" arrivalLane="520_4way_293to4way_294_0" arrivalPos="85.60" arrivalSpeed="13.47" duration="127.00" routeLength="875.13" waitingTime="50.00" waitingCount="1" stopTime="0.00" timeLoss="63.96" rerouteNo="0" devices="tripinfo_78" vType="DEFAULT_VEHTYPE" speedFactor="1.03" vaporized=""/>
    <tripinfo id="198" depart="198.00" departLane="540_4way_324to4way_304_0" departPos="5.10" departSpeed="0.00" departDelay="0.00" arrival="208.00" arrivalLane="540_4way_324to4way_304_0" arrivalPos="85.60" arrivalSpeed="11.22" duration="10.00" routeLength="80.50" waitingTime="0.00" waitingCount="0" stopTime="0.00" timeLoss="3.17" rerouteNo="0" devices="tripinfo_198" vType="DEFAULT_VEHTYPE" speedFactor="0.87" vaporized=""/>
    <tripinfo id="103" depart="103.00" departLane="655_4way_366to4way_367_0" departPos="5.10" departSpeed="0.00" departDelay="0.00" arrival="210.00" arrivalLane="661_4way_370to4way_371_0" arrivalPos="85.60" arrivalSpeed="15.18" duration="107.00" routeLength="480.50" waitingTime="56.00" waitingCount="2" stopTime="0.00" timeLoss="76.16" rerouteNo="0" devices="tripinfo_103" vType="DEFAULT_VEHTYPE" speedFactor="1.15" vaporized=""/>
    <tripinfo id="8" depart="8.00" departLane="224_4way_135to4way_134_0" departPos="5.10" departSpeed="0.00" departDelay="0.00" arrival="220.00" arrivalLane="5_3way_10to3way_9_0" arrivalPos="85.60" arrivalSpeed="12.50" duration="212.00" routeLength="1174.93" waitingTime="102.00" waitingCount="3" stopTime="0.00" timeLoss="123.97" rerouteNo="0" devices="tripinfo_8" vType="DEFAULT_VEHTYPE" speedFactor="0.98" vaporized=""/>
    <tripinfo id="117" depart="117.00" departLane="241_4way_146to4way_145_0" departPos="5.10" departSpeed="0.00" departDelay="0.00" arrival="222.00" arrivalLane="339_4way_201to4way_221_0" arrivalPos="85.60" arrivalSpeed="11.87" duration="105.00" routeLength="875.13" waitingTime="24.00" waitingCount="1" stopTime="0.00" timeLoss="34.75" rerouteNo="0" devices="tripinfo_117" vType="DEFAULT_VEHTYPE" speedFactor="0.91" vaporized=""/>
    <tripinfo id="135" depart="135.00" departLane="229_4way_136to4way_156_0" departPos="5.10" departSpeed="0.00" departDelay="0.00" arrival="226.00" arrivalLane="372_4way_217to4way_218_0" arrivalPos="85.60" arrivalSpeed="14.89" duration="91.00" routeLength="575.13" waitingTime="40.00" waitingCount="1" stopTime="0.00" timeLoss="52.09" rerouteNo="0" devices="tripinfo_135" vType="DEFAULT_VEHTYPE" speedFactor="1.09" vaporized=""/>
    <tripinfo id="142" depart="142.00" departLane="66_3way_280to4way_281_0" departPos="5.10" departSpeed="0.00" departDelay="0.00" arrival="226.00" arrivalLane="423_4way_264to4way_244_0" arrivalPos="85.60" arrivalSpeed="14.70" duration="84.00" routeLength="575.13" waitingTime="34.00" waitingCount="1" stopTime="0.00" timeLoss="45.11" rerouteNo="0" devices="tripinfo_142" vType="DEFAULT_VEHTYPE" speedFactor="1.09" vaporized=""/>
    <tripinfo id="39" depart="41.00" departLane="100_3way_387to4way_367_0" departPos="5.10" departSpeed="0.00" departDelay="2.00" arrival="230.00" arrivalLane="342_4way_204to4way_203_0" arrivalPos="85.60" arrivalSpeed="13.70" duration="189.00" routeLength="1275.13" waitingTime="75.00" waitingCount="2" stopTime="0.00" timeLoss="100.41" rerouteNo="0" devices="tripinfo_39" vType="DEFAULT_VEHTYPE" speedFactor="1.05" vaporized=""/>
    <tripinfo id="59" depart="59.00" departLane="179_4way_112to4way_132_0" departPos="5.10" departSpeed="0.00" departDelay="0.00" arrival="250.00" arrivalLane="296_4way_175to4way_176_0" arrivalPos="85.60" arrivalSpeed="5.38" duration="191.00" routeLength="675.13" waitingTime="117.00" waitingCount="3" stopTime="0.00" timeLoss="142.84" rerouteNo="0" devices="tripinfo_59" vType="DEFAULT_VEHTYPE" speedFactor="1.03" vaporized=""/>
    <tripinfo id="95" depart="95.00" departLane="417_4way_241to4way_261_0" departPos="5.10" departSpeed="0.00" departDelay="0.00" arrival="250.00" arrivalLane="500_4way_284to4way_285_0" arrivalPos="85.60" arrivalSpeed="5.98" duration="155.00" routeLength="575.13" waitingTime="85.00" waitingCount="2" stopTime="0.00" timeLoss="106.91" rerouteNo="0" devices="tripinfo_95" vType="DEFAULT_VEHTYPE" speedFactor="0.88" vaporized=""/>
    <tripinfo id="164" depart="164.00" departLane="207_4way_145to4way_125_0" departPos="5.10" departSpeed="0.00" departDelay="0.00" arrival="250.00" arrivalLane="151_4way_104to4way_103_0" arrivalPos="85.60" arrivalSpeed="5.48" duration="86.00" routeLength="375.13" waitingTime="47.00" waitingCount="1" stopTime="0.00" timeLoss="61.01" rerouteNo="0" devices="tripinfo_164" vType="DEFAULT_VEHTYPE" speedFactor="1.11" vaporized=""/>
    <tripinfo id="217" depart="217.00" departLane="209_4way_126to4way_146_0" departPos="5.10" departSpeed="0.00" departDelay="0.00" arrival="253.00" arrivalLane="245_4way_147to4way_148_0" arrivalPos="85.60" arrivalSpeed="6.42" duration="36.00" routeLength="275.13" waitingTime="5.00" waitingCount="1" stopTime="0.00" timeLoss="17.64" rerouteNo="0" devices="tripinfo_217" vType="DEFAULT_VEHTYPE" speedFactor="1.12" vaporized=""/>
    <tripinfo id="10" depart="10.00" departLane="405_4way_234to4way_235_0" departPos="5.10" departSpeed="0.00" departDelay="0.00" arrival="256.00" arrivalLane="374_4way_238to4way_218_0" arrivalPos="85.60" arrivalSpeed="13.36" duration="246.00" routeLength="475.13" waitingTime="187.00" waitingCount="4" stopTime="0.00" timeLoss="212.17" rerouteNo="0" devices="tripinfo_10" vType="DEFAULT_VEHTYPE" speedFactor="1.04" vaporized=""/>
    <tripinfo id="19" depart="19.00" departLane="571_4way_32to4way_52_0" departPos="5.10" departSpeed="0.00" departDelay="0.00" arrival="257.00" arrivalLane="526_4way_296to4way_297_0" arrivalPos="85.60" arrivalSpeed="11.11" duration="238.00" routeLength="1775.13" waitingTime="71.00" waitingCount="2" stopTime="0.00" timeLoss="93.21" rerouteNo="0" devices="tripinfo_19" vType="DEFAULT_VEHTYPE" speedFactor="0.89" vaporized=""/>
    <tripinfo id="89" depart="89.00" departLane="15_3way_13to3way_12_0" departPos="5.10" departSpeed="0.00" departDelay="0.00" arrival="257.00" arrivalLane="291_4way_172to4way_192_0" arrivalPos="85.60" arrivalSpeed="11.83" duration="168.00" routeLength="975.13" waitingTime="74.00" waitingCount="2" stopTime="0.00" timeLoss="91.81" rerouteNo="0" devices="tripinfo_89" vType="DEFAULT_VEHTYPE" speedFactor="0.93" vaporized=""/>
    <tripinfo id="127" depart="127.00" departLane="78_3way_339to4way_338_0" departPos="5.10" departSpeed="0.00" departDelay="0.00" arrival="257.00" arrivalLane="604_4way_337to4way_336_0" arrivalPos="85.60" arrivalSpeed="12.80" duration="130.00" routeLength="280.50" waitingTime="95.00" waitingCount="2" stopTime="0.00" timeLoss="109.15" rerouteNo="0" devices="tripinfo_127" vType="DEFAULT_VEHTYPE" speedFactor="1.00" vaporized=""/>
    <tripinfo id="158" depart="158.00" departLane="166_4way_109to4way_108_0" departPos="5.10" departSpeed="0.00" departDelay="0.00" arrival="257.00" arrivalLane="160_4way_107to4way_106_0" arrivalPos="85.60" arrivalSpeed="12.37" duration="99.00" routeLength="280.50" waitingTime="61.00" waitingCount="2" stopTime="0.00" timeLoss="77.95" rerouteNo="0" devices="tripinfo_158" vType="DEFAULT_VEHTYPE" speedFactor="0.96" vaporized=""/>
    <tripinfo id="62" depart="62.00" departLane="217_4way_150to4way_130_0" departPos="5.10" departSpeed="0.00" departDelay="0.00" arrival="258.00" arrivalLane="208_4way_127to4way_126_0" arrivalPos="85.60" arrivalSpeed="13.50" duration="196.00" routeLength="475.13" waitingTime="139.00" waitingCount="3" stopTime="0.00" timeLoss="162.13" rerouteNo="0" devices="tripinfo_62" vType="DEFAULT_VEHTYPE" speedFactor="1.05" vaporized=""/>
    <tripinfo id="17" depart="17.00" departLane="359_4way_230to4way_210_0" departPos="5.10" departSpeed="0.00" departDelay="0.00" arrival="264.00" arrivalLane="140_3way_9to3way_8_0" arrivalPos="85.60" arrivalSpeed="13.40" duration="247.00" routeLength="1275.13" waitingTime="130.00" waitingCount="3" stopTime="0.00" timeLoss="157.51" rerouteNo="0" devices="tripinfo_17" vType="DEFAULT_VEHTYPE" speedFactor="1.04" vaporized=""/>
    <tripinfo id="177" depart="177.00" departLane="661_4way_371to4way_370_0" departPos="5.10" departSpeed="0.00" departDelay="0.00" arrival="264.00" arrivalLane="548_4way_328to4way_308_0" arrivalPos="85.60" arrivalSpeed="13.97" duration="87.00" routeLength="580.30" waitingTime="33.00" waitingCount="1" stopTime="0.00" timeLoss="45.31" rerouteNo="0" devices="tripinfo_177" vType="DEFAULT_VEHTYPE" speedFactor="1.03" vaporized=""/>
    <tripinfo id="149" depart="149.00" departLane="739_4way_78to4way_98_0" departPos="5.10" departSpeed="0.00" departDelay="0.00" arrival="265.00" arrivalLane="267_4way_158to4way_178_0" arrivalPos="85.60" arrivalSpeed="12.81" duration="116.00" routeLength="480.50" waitingTime="64.00" waitingCount="2" stopTime="0.00" timeLoss="79.05" rerouteNo="0" devices="tripinfo_149" vType="DEFAULT_VEHTYPE" speedFactor="0.95" vaporized=""/>
    <tripinfo id="163" depart="163.00" departLane="179_4way_132to4way_112_0" departPos="5.10" departSpeed="0.00" departDelay="0.00" arrival="265.00" arrivalLane="571_4way_52to4way_32_0" arrivalPos="85.60" arrivalSpeed="11.98" duration="102.00" routeLength="480.50" waitingTime="49.00" waitingCount="2" stopTime="0.00" timeLoss="64.66" rerouteNo="0" devices="tripinfo_163" vType="DEFAULT_VEHTYPE" speedFactor="0.94" vaporized=""/>
    <tripinfo id="2" depart="2.00" departLane="749_4way_91to4way_90_0" departPos="5.10" departSpeed="0.00" departDelay="0.00" arrival="266.00" arrivalLane="161_4way_106to4way_126_0" arrivalPos="85.60" arrivalSpeed="13.74" duration="264.00" routeLength="675.13" waitingTime="186.00" waitingCount="4" stopTime="0.00" timeLoss="216.22" rerouteNo="0" devices="tripinfo_2" vType="DEFAULT_VEHTYPE" speedFactor="1.04" vaporized=""/>
    <tripinfo id="77" depart="77.00" departLane="447_4way_255to4way_275_0" departPos="5.10" departSpeed="0.00" departDelay="0.00" arrival="266.00" arrivalLane="95_3way_386to3way_385_0" arrivalPos="85.60" arrivalSpeed="13.41" duration="189.00" routeLength="1680.29" waitingTime="53.00" waitingCount="1" stopTime="0.00" timeLoss="65.23" rerouteNo="0" devices="tripinfo_77" vType="DEFAULT_VEHTYPE" speedFactor="0.99" vaporized=""/>
    <tripinfo id="159" depart="159.00" departLane="663_4way_372to4way_373_0" departPos="5.10" departSpeed="0.00" departDelay="0.00" arrival="268.00" arrivalLane="642_4way_375to4way_355_0" arrivalPos="85.60" arrivalSpeed="12.96" duration="109.00" routeLength="375.13" waitingTime="61.00" waitingCount="2" stopTime="0.00" timeLoss="80.06" rerouteNo="0" devices="tripinfo_159" vType="DEFAULT_VEHTYPE" speedFactor="0.99" vaporized=""/>
    <tripinfo id="32" depart="32.00" departLane="711_4way_65to4way_64_0" departPos="5.10" departSpeed="0.00" departDelay="0.00" arrival="271.00" arrivalLane="146_4way_101to4way_121_0" arrivalPos="85.60" arrivalSpeed="13.27" duration="239.00" routeLength="675.13" waitingTime="165.00" waitingCount="4" stopTime="0.00" timeLoss="189.91" rerouteNo="0" devices="tripinfo_32" vType="DEFAULT_VEHTYPE" speedFactor="1.00" vaporized=""/>
    <tripinfo id="61" depart="61.00" departLane="750_4way_91to4way_92_0" departPos="5.10" departSpeed="0.00" departDelay="0.00" arrival="272.00" arrivalLane="669_4way_58to4way_38_0" arrivalPos="85.60" arrivalSpeed="13.34" duration="211.00" routeLength="975.13" waitingTime="119.00" waitingCount="3" stopTime="0.00" timeLoss="139.92" rerouteNo="0" devices="tripinfo_61" vType="DEFAULT_VEHTYPE" speedFactor="1.01" vaporized=""/>
    <tripinfo id="68" depart="68.00" departLane="254_4way_151to4way_171_0" departPos="5.10" departSpeed="0.00" departDelay="0.00" arrival="275.00" arrivalLane="394_4way_229to4way_249_0" arrivalPos="85.60" arrivalSpeed="14.08" duration="207.00" routeLength="674.93" waitingTime="133.00" waitingCount="4" stopTime="0.00" timeLoss="160.89" rerouteNo="0" devices="tripinfo_68" vType="DEFAULT_VEHTYPE" speedFactor="1.09" vaporized=""/>
    <tripinfo id="197" depart="197.00" departLane="669_4way_58to4way_38_0" departPos="5.10" departSpeed="0.00" departDelay="0.00" arrival="280.00" arrivalLane="23_3way_15to3way_14_0" arrivalPos="85.60" arrivalSpeed="13.64" duration="83.00" routeLength="575.13" waitingTime="30.00" waitingCount="1" stopTime="0.00" timeLoss="40.34" rerouteNo="0" devices="tripinfo_197" vType="DEFAULT_VEHTYPE" speedFactor="1.01" vaporized=""/>
    <tripinfo id="102" depart="102.00" departLane="37_3way_199to3way_179_0" departPos="5.10" departSpeed="0.00" departDelay="0.00" arrival="310.00" arrivalLane="4_3way_11to3way_10_0" arrivalPos="85.60" arrivalSpeed="5.40" duration="208.00" routeLength="1777.30" waitingTime="63.00" waitingCount="2" stopTime="0.00" timeLoss="86.07" rerouteNo="0" devices="tripinfo_102" vType="DEFAULT_VEHTYPE" speedFactor="1.05" vaporized=""/>
    <tripinfo id="203" depart="203.00" departLane="708_4way_62to4way_82_0" departPos="5.10" departSpeed="0.00" departDelay="0.00" arrival="310.00" arrivalLane="742_4way_83to4way_84_0" arrivalPos="85.60" arrivalSpeed="5.93" duration="107.00" routeLength="275.13" waitingTime="72.00" waitingCount="2" stopTime="0.00" timeLoss="85.34" rerouteNo="0" devices="tripinfo_203" vType="DEFAULT_VEHTYPE" speedFactor="0.95" vaporized=""/>
    <tripinfo id="50" depart="50.00" departLane="613_4way_342to4way_343_0" departPos="5.10" departSpeed="0.00" departDelay="0.00" arrival="313.00" arrivalLane="631_4way_350to4way_351_0" arrivalPos="85.60" arrivalSpeed="8.13" duration="263.00" routeLength="880.50" waitingTime="164.00" waitingCount="5" stopTime="0.00" timeLoss="199.80" rerouteNo="0" devices="tripinfo_50" vType="DEFAULT_VEHTYPE" speedFactor="1.01" vaporized=""/>
    <tripinfo id="303" depart="303.00" departLane="148_4way_102to4way_103_0" departPos="5.10" departSpeed="0.00" departDelay="0.00" arrival="313.00" arrivalLane="148_4way_102to4way_103_0" arrivalPos="85.60" arrivalSpeed="14.15" duration="10.00" routeLength="80.50" waitingTime="0.00" waitingCount="0" stopTime="0.00" timeLoss="3.35" rerouteNo="0" devices="tripinfo_303" vType="DEFAULT_VEHTYPE" speedFactor="1.02" vaporized=""/>
    <tripinfo id="74" depart="74.00" departLane="647_4way_378to4way_358_0" departPos="5.10" departSpeed="0.00" departDelay="0.00" arrival="315.00" arrivalLane="479_4way_273to4way_272_0" arrivalPos="85.60" arrivalSpeed="9.81" duration="241.00" routeLength="1075.13" waitingTime="118.00" waitingCount="3" stopTime="0.00" timeLoss="144.01" rerouteNo="0" devices="tripinfo_74" vType="DEFAULT_VEHTYPE" speedFactor="0.81" vaporized=""/>
    <tripinfo id="71" depart="71.00" departLane="410_4way_256to4way_236_0" departPos="5.10" departSpeed="0.00" departDelay="0.00" arrival="316.00" arrivalLane="387_4way_227to4way_226_0" arrivalPos="85.60" arrivalSpeed="15.15" duration="245.00" routeLength="1075.13" waitingTime="144.00" waitingCount="4" stopTime="0.00" timeLoss="175.54" rerouteNo="0" devices="tripinfo_71" vType="DEFAULT_VEHTYPE" speedFactor="1.13" vaporized=""/>
    <tripinfo id="29" depart="29.00" departLane="235_4way_142to4way_143_0" departPos="5.10" departSpeed="0.00" departDelay="0.00" arrival="317.00" arrivalLane="160_4way_106to4way_107_0" arrivalPos="85.60" arrivalSpeed="12.18" duration="288.00" routeLength="674.93" waitingTime="209.00" waitingCount="4" stopTime="0.00" timeLoss="235.03" rerouteNo="0" devices="tripinfo_29" vType="DEFAULT_VEHTYPE" speedFactor="0.95" vaporized=""/>
    <tripinfo id="52" depart="52.00" departLane="433_4way_269to4way_249_0" departPos="5.10" departSpeed="0.00" departDelay="0.00" arrival="317.00" arrivalLane="305_4way_183to4way_182_0" arrivalPos="85.60" arrivalSpeed="13.71" duration="265.00" routeLength="1075.13" waitingTime="155.00" waitingCount="4" stopTime="0.00" timeLoss="188.08" rerouteNo="0" devices="tripinfo_52" vType="DEFAULT_VEHTYPE" speedFactor="1.03" vaporized=""/>
    <tripinfo id="86" depart="86.00" departLane="136_3way_8to3way_7_0" departPos="5.10" departSpeed="0.00" departDelay="0.00" arrival="317.00" arrivalLane="234_4way_141to4way_161_0" arrivalPos="85.60" arrivalSpeed="14.62" duration="231.00" routeLength="1475.13" waitingTime="101.00" waitingCount="3" stopTime="0.00" timeLoss="129.67" rerouteNo="0" devices="tripinfo_86" vType="DEFAULT_VEHTYPE" speedFactor="1.06" vaporized=""/>
    <tripinfo id="126" depart="126.00" departLane="328_4way_193to4way_213_0" departPos="5.10" departSpeed="0.00" departDelay="0.00" arrival="317.00" arrivalLane="560_4way_313to4way_333_0" arrivalPos="85.60" arrivalSpeed="12.98" duration="191.00" routeLength="680.50" waitingTime="122.00" waitingCount="3" stopTime="0.00" timeLoss="141.72" rerouteNo="0" devices="tripinfo_126" vType="DEFAULT_VEHTYPE" speedFactor="1.01" vaporized=""/>