<?xml version="1.0" encoding="UTF-8"?>

<!-- generated on 2023-07-06 13:56:43 by Eclipse SUMO sumo Version 1.12.0
<configuration xmlns:xsi="http://www.w3.org/2001/XMLSchema-instance" xsi:noNamespaceSchemaLocation="http://sumo.dlr.de/xsd/sumoConfiguration.xsd">

    <input>
        <net-file value="../../data_generation/sq.net.xml"/>
        <route-files value="../../data_generation/sq.rou.xml"/>
    </input>

    <output>
        <tripinfo-output value="tripinfo.xml"/>
        <statistic-output value="statistic.xml"/>
    </output>

    <time>
        <begin value="0"/>
        <end value="3600"/>
    </time>

    <processing>
        <time-to-teleport value="-1"/>
    </processing>

    <traci_server>
        <remote-port value="40703"/>
    </traci_server>

    <random_number>
        <seed value="1395"/>
    </random_number>

    <gui_only>
        <gui-settings-file value="../../data_generation/view_HY_0402.xml"/>
    </gui_only>

</configuration>
-->

<tripinfos xmlns:xsi="http://www.w3.org/2001/XMLSchema-instance" xsi:noNamespaceSchemaLocation="http://sumo.dlr.de/xsd/tripinfo_file.xsd">
    <tripinfo id="22" depart="3.00" departLane="478_4way_291to4way_271_0" departPos="5.10" departSpeed="0.00" departDelay="0.36" arrival="20.00" arrivalLane="478_4way_291to4way_271_0" arrivalPos="185.60" arrivalSpeed="13.61" duration="17.00" routeLength="180.50" waitingTime="0.00" waitingCount="0" stopTime="0.00" timeLoss="3.67" rerouteNo="0" devices="tripinfo_22" vType="DEFAULT_VEHTYPE" speedFactor="1.00" vaporized=""/>
    <tripinfo id="160" depart="20.00" departLane="90_3way_382to4way_362_0" departPos="5.10" departSpeed="0.00" departDelay="0.80" arrival="39.00" arrivalLane="90_3way_382to4way_362_0" arrivalPos="185.60" arrivalSpeed="11.72" duration="19.00" routeLength="180.50" waitingTime="0.00" waitingCount="0" stopTime="0.00" timeLoss="3.67" rerouteNo="0" devices="tripinfo_160" vType="DEFAULT_VEHTYPE" speedFactor="0.88" vaporized=""/>
    <tripinfo id="167" depart="21.00" departLane="697_4way_54to4way_74_0" departPos="5.10" departSpeed="0.00" departDelay="0.96" arrival="41.00" arrivalLane="697_4way_54to4way_74_0" arrivalPos="185.60" arrivalSpeed="11.23" duration="20.00" routeLength="180.50" waitingTime="0.00" waitingCount="0" stopTime="0.00" timeLoss="4.09" rerouteNo="0" devices="tripinfo_167" vType="DEFAULT_VEHTYPE" speedFactor="0.85" vaporized=""/>
    <tripinfo id="198" depart="24.00" departLane="540_4way_324to4way_304_0" departPos="5.10" departSpeed="0.00" departDelay="0.24" arrival="43.00" arrivalLane="540_4way_324to4way_304_0" arrivalPos="185.60" arrivalSpeed="11.13" duration="19.00" routeLength="180.50" waitingTime="0.00" waitingCount="0" stopTime="0.00" timeLoss="3.39" rerouteNo="0" devices="tripinfo_198" vType="DEFAULT_VEHTYPE" speedFactor="0.87" vaporized=""/>
    <tripinfo id="148" depart="18.00" departLane="666_4way_375to4way_376_0" departPos="5.10" departSpeed="0.00" departDelay="0.24" arrival="51.00" arrivalLane="120_4way_376to3way_396_0" arrivalPos="185.60" arrivalSpeed="14.27" duration="33.00" routeLength="380.30" waitingTime="0.00" waitingCount="0" stopTime="0.00" timeLoss="6.31" rerouteNo="0" devices="tripinfo_148" vType="DEFAULT_VEHTYPE" speedFactor="1.07" vaporized=""/>
    <tripinfo id="303" depart="37.00" departLane="148_4way_102to4way_103_0" departPos="5.10" departSpeed="0.00" departDelay="0.64" arrival="54.00" arrivalLane="148_4way_102to4way_103_0" arrivalPos="185.60" arrivalSpeed="13.53" duration="17.00" routeLength="180.50" waitingTime="0.00" waitingCount="0" stopTime="0.00" timeLoss="3.93" rerouteNo="0" devices="tripinfo_303" vType="DEFAULT_VEHTYPE" speedFactor="1.02" vaporized=""/>
    <tripinfo id="127" depart="16.00" departLane="78_3way_339to4way_338_0" departPos="5.10" departSpeed="0.00" departDelay="0.76" arrival="63.00" arrivalLane="604_4way_337to4way_336_0" arrivalPos="185.60" arrivalSpeed="12.61" duration="47.00" routeLength="580.50" waitingTime="0.00" waitingCount="0" stopTime="0.00" timeLoss="4.28" rerouteNo="0" devices="tripinfo_127" vType="DEFAULT_VEHTYPE" speedFactor="1.00" vaporized=""/>
    <tripinfo id="332" depart="40.00" departLane="542_4way_305to4way_325_0" departPos="5.10" departSpeed="0.00" departDelay="0.16" arrival="71.00" arrivalLane="542_4way_305to4way_325_0" arrivalPos="185.60" arrivalSpeed="6.41" duration="31.00" routeLength="180.50" waitingTime="7.00" waitingCount="1" stopTime="0.00" timeLoss="14.87" rerouteNo="0" devices="tripinfo_332" vType="DEFAULT_VEHTYPE" speedFactor="0.83" vaporized=""/>
    <tripinfo id="445" depart="54.00" departLane="465_4way_267to4way_266_0" departPos="5.10" departSpeed="0.00" departDelay="0.60" arrival="71.00" arrivalLane="465_4way_267to4way_266_0" arrivalPos="185.60" arrivalSpeed="13.62" duration="17.00" routeLength="180.50" waitingTime="0.00" waitingCount="0" stopTime="0.00" timeLoss="3.32" rerouteNo="0" devices="tripinfo_445" vType="DEFAULT_VEHTYPE" speedFactor="1.02" vaporized=""/>
    <tripinfo id="326" depart="40.00" departLane="18_3way_120to4way_121_0" departPos="5.10" departSpeed="0.00" departDelay="0.88" arrival="72.00" arrivalLane="198_4way_121to4way_122_0" arrivalPos="185.60" arrivalSpeed="13.10" duration="32.00" routeLength="380.50" waitingTime="0.00" waitingCount="0" stopTime="0.00" timeLoss="3.87" rerouteNo="0" devices="tripinfo_326" vType="DEFAULT_VEHTYPE" speedFactor="1.00" vaporized=""/>
    <tripinfo id="258" depart="31.00" departLane="342_4way_204to4way_203_0" departPos="5.10" departSpeed="0.00" departDelay="0.04" arrival="74.00" arrivalLane="338_4way_202to4way_201_0" arrivalPos="185.60" arrivalSpeed="15.12" duration="43.00" routeLength="580.50" waitingTime="0.00" waitingCount="0" stopTime="0.00" timeLoss="4.86" rerouteNo="0" devices="tripinfo_258" vType="DEFAULT_VEHTYPE" speedFactor="1.12" vaporized=""/>
    <tripinfo id="203" depart="25.00" departLane="707_4way_62to4way_63_0" departPos="5.10" departSpeed="0.00" departDelay="0.64" arrival="76.00" arrivalLane="712_4way_64to4way_84_0" arrivalPos="185.60" arrivalSpeed="12.31" duration="51.00" routeLength="580.30" waitingTime="0.00" waitingCount="0" stopTime="0.00" timeLoss="5.88" rerouteNo="0" devices="tripinfo_203" vType="DEFAULT_VEHTYPE" speedFactor="0.95" vaporized=""/>
    <tripinfo id="351" depart="43.00" departLane="73_3way_339to3way_319_0" departPos="5.10" departSpeed="0.00" departDelay="0.88" arrival="80.00" arrivalLane="67_3way_319to3way_299_0" arrivalPos="185.60" arrivalSpeed="11.84" duration="37.00" routeLength="380.50" waitingTime="0.00" waitingCount="0" stopTime="0.00" timeLoss="4.02" rerouteNo="0" devices="tripinfo_351" vType="DEFAULT_VEHTYPE" speedFactor="0.85" vaporized=""/>
    <tripinfo id="397" depart="48.00" departLane="372_4way_217to4way_218_0" departPos="5.10" departSpeed="0.00" departDelay="0.36" arrival="81.00" arrivalLane="337_4way_218to4way_198_0" arrivalPos="185.60" arrivalSpeed="13.79" duration="33.00" routeLength="375.13" waitingTime="0.00" waitingCount="0" stopTime="0.00" timeLoss="5.97" rerouteNo="0" devices="tripinfo_397" vType="DEFAULT_VEHTYPE" speedFactor="1.05" vaporized=""/>
    <tripinfo id="416" depart="50.00" departLane="551_4way_31to4way_32_0" departPos="5.10" departSpeed="0.00" departDelay="0.08" arrival="81.00" arrivalLane="570_4way_32to4way_33_0" arrivalPos="185.60" arrivalSpeed="13.65" duration="31.00" routeLength="380.50" waitingTime="0.00" waitingCount="0" stopTime="0.00" timeLoss="4.34" rerouteNo="0" devices="tripinfo_416" vType="DEFAULT_VEHTYPE" speedFactor="1.04" vaporized=""/>
    <tripinfo id="10" depart="2.00" departLane="405_4way_234to4way_235_0" departPos="5.10" departSpeed="0.00" departDelay="0.80" arrival="84.00" arrivalLane="374_4way_238to4way_218_0" arrivalPos="185.60" arrivalSpeed="13.67" duration="82.00" routeLength="975.13" waitingTime="2.00" waitingCount="1" stopTime="0.00" timeLoss="13.53" rerouteNo="0" devices="tripinfo_10" vType="DEFAULT_VEHTYPE" speedFactor="1.04" vaporized=""/>
    <tripinfo id="158" depart="19.00" departLane="166_4way_109to4way_108_0" departPos="5.10" departSpeed="0.00" departDelay="0.04" arrival="85.00" arrivalLane="160_4way_107to4way_106_0" arrivalPos="185.60" arrivalSpeed="12.22" duration="66.00" routeLength="580.50" waitingTime="11.00" waitingCount="1" stopTime="0.00" timeLoss="21.90" rerouteNo="0" devices="tripinfo_158" vType="DEFAULT_VEHTYPE" speedFactor="0.96" vaporized=""/>
    <tripinfo id="9" depart="2.00" departLane="733_4way_76to4way_75_0" departPos="5.10" departSpeed="0.00" departDelay="0.92" arrival="86.00" arrivalLane="731_4way_75to4way_74_0" arrivalPos="185.60" arrivalSpeed="11.72" duration="84.00" routeLength="380.50" waitingTime="44.00" waitingCount="1" stopTime="0.00" timeLoss="53.20" rerouteNo="0" devices="tripinfo_9" vType="DEFAULT_VEHTYPE" speedFactor="0.91" vaporized=""/>
    <tripinfo id="452" depart="55.00" departLane="755_4way_97to4way_96_0" departPos="5.10" departSpeed="0.00" departDelay="0.76" arrival="87.00" arrivalLane="192_4way_96to4way_116_0" arrivalPos="185.60" arrivalSpeed="14.44" duration="32.00" routeLength="375.13" waitingTime="0.00" waitingCount="0" stopTime="0.00" timeLoss="6.10" rerouteNo="0" devices="tripinfo_452" vType="DEFAULT_VEHTYPE" speedFactor="1.09" vaporized=""/>
    <tripinfo id="257" depart="31.00" departLane="438_4way_252to4way_251_0" departPos="5.10" departSpeed="0.00" departDelay="0.16" arrival="89.00" arrivalLane="437_4way_250to4way_270_0" arrivalPos="185.60" arrivalSpeed="10.36" duration="58.00" routeLength="575.13" waitingTime="0.00" waitingCount="0" stopTime="0.00" timeLoss="6.50" rerouteNo="0" devices="tripinfo_257" vType="DEFAULT_VEHTYPE" speedFactor="0.83" vaporized=""/>
    <tripinfo id="189" depart="23.00" departLane="512_4way_30to4way_29_0" departPos="5.10" departSpeed="0.00" departDelay="0.32" arrival="92.00" arrivalLane="474_4way_27to4way_47_0" arrivalPos="185.60" arrivalSpeed="11.91" duration="69.00" routeLength="775.13" waitingTime="0.00" waitingCount="0" stopTime="0.00" timeLoss="7.44" rerouteNo="0" devices="tripinfo_189" vType="DEFAULT_VEHTYPE" speedFactor="0.92" vaporized=""/>
    <tripinfo id="610" depart="74.00" departLane="413_4way_238to4way_258_0" departPos="5.10" departSpeed="0.00" departDelay="0.80" arrival="92.00" arrivalLane="413_4way_238to4way_258_0" arrivalPos="185.60" arrivalSpeed="12.04" duration="18.00" routeLength="180.50" waitingTime="0.00" waitingCount="0" stopTime="0.00" timeLoss="3.79" rerouteNo="0" devices="tripinfo_610" vType="DEFAULT_VEHTYPE" speedFactor="0.93" vaporized=""/>
    <tripinfo id="531" depart="64.00" departLane="124_3way_5to3way_4_0" departPos="5.10" departSpeed="0.00" departDelay="0.28" arrival="93.00" arrivalLane="69_3way_4to3way_3_0" arrivalPos="185.60" arrivalSpeed="15.18" duration="29.00" routeLength="380.50" waitingTime="0.00" waitingCount="0" stopTime="0.00" timeLoss="4.25" rerouteNo="0" devices="tripinfo_531" vType="DEFAULT_VEHTYPE" speedFactor="1.11" vaporized=""/>
    <tripinfo id="62" depart="8.00" departLane="217_4way_150to4way_130_0" departPos="5.10" departSpeed="0.00" departDelay="0.56" arrival="98.00" arrivalLane="208_4way_127to4way_126_0" arrivalPos="185.60" arrivalSpeed="14.17" duration="90.00" routeLength="975.13" waitingTime="8.00" waitingCount="1" stopTime="0.00" timeLoss="21.92" rerouteNo="0" devices="tripinfo_62" vType="DEFAULT_VEHTYPE" speedFactor="1.05" vaporized=""/>
    <tripinfo id="217" depart="27.00" departLane="208_4way_126to4way_127_0" departPos="5.10" departSpeed="0.00" departDelay="0.96" arrival="99.00" arrivalLane="213_4way_128to4way_148_0" arrivalPos="185.60" arrivalSpeed="14.45" duration="72.00" routeLength="580.30" waitingTime="21.00" waitingCount="1" stopTime="0.00" timeLoss="33.80" rerouteNo="0" devices="tripinfo_217" vType="DEFAULT_VEHTYPE" speedFactor="1.12" vaporized=""/>
    <tripinfo id="429" depart="52.00" departLane="615_4way_344to4way_343_0" departPos="5.10" departSpeed="0.00" departDelay="0.52" arrival="106.00" arrivalLane="80_4way_341to3way_340_0" arrivalPos="185.60" arrivalSpeed="14.97" duration="54.00" routeLength="780.50" waitingTime="0.00" waitingCount="0" stopTime="0.00" timeLoss="5.55" rerouteNo="0" devices="tripinfo_429" vType="DEFAULT_VEHTYPE" speedFactor="1.16" vaporized=""/>
    <tripinfo id="495" depart="60.00" departLane="676_4way_44to4way_45_0" departPos="5.10" departSpeed="0.00" departDelay="0.60" arrival="110.00" arrivalLane="129_4way_25to3way_5_0" arrivalPos="185.60" arrivalSpeed="13.05" duration="50.00" routeLength="575.13" waitingTime="0.00" waitingCount="0" stopTime="0.00" timeLoss="7.37" rerouteNo="0" devices="tripinfo_495" vType="DEFAULT_VEHTYPE" speedFactor="1.00" vaporized=""/>
    <tripinfo id="358" depart="43.00" departLane="392_4way_248to4way_228_0" departPos="5.10" departSpeed="0.00" departDelay="0.04" arrival="111.00" arrivalLane="348_4way_207to4way_206_0" arrivalPos="185.60" arrivalSpeed="15.34" duration="68.00" routeLength="775.13" waitingTime="4.00" waitingCount="1" stopTime="0.00" timeLoss="18.96" rerouteNo="0" devices="tripinfo_358" vType="DEFAULT_VEHTYPE" speedFactor="1.16" vaporized=""/>
    <tripinfo id="536" depart="65.00" departLane="671_4way_41to4way_61_0" departPos="5.10" departSpeed="0.00" departDelay="0.68" arrival="112.00" arrivalLane="707_4way_62to4way_63_0" arrivalPos="185.60" arrivalSpeed="13.82" duration="47.00" routeLength="575.13" waitingTime="0.00" waitingCount="0" stopTime="0.00" timeLoss="7.22" rerouteNo="0" devices="tripinfo_536" vType="DEFAULT_VEHTYPE" speedFactor="1.06" vaporized=""/>
    <tripinfo id="341" depart="41.00" departLane="730_4way_93to4way_73_0" departPos="5.10" departSpeed="0.00" departDelay="0.08" arrival="113.00" arrivalLane="15_3way_13to3way_12_0" arrivalPos="185.60" arrivalSpeed="15.53" duration="72.00" routeLength="975.13" waitingTime="0.00" waitingCount="0" stopTime="0.00" timeLoss="7.97" rerouteNo="0" devices="tripinfo_341" vType="DEFAULT_VEHTYPE" speedFactor="1.12" vaporized=""/>
    <tripinfo id="732" depart="88.00" departLane="633_4way_351to4way_352_0" departPos="5.10" departSpeed="0.00" departDelay="0.16" arrival="115.00" arrivalLane="635_4way_352to4way_353_0" arrivalPos="185.60" arrivalSpeed="16.56" duration="27.00" routeLength="380.50" waitingTime="0.00" waitingCount="0" stopTime="0.00" timeLoss="4.16" rerouteNo="0" devices="tripinfo_732" vType="DEFAULT_VEHTYPE" speedFactor="1.22" vaporized=""/>
    <tripinfo id="371" depart="45.00" departLane="127_3way_40to4way_41_0" departPos="5.10" departSpeed="0.00" departDelay="0.48" arrival="121.00" arrivalLane="1_3way_1to3way_2_0" arrivalPos="185.60" arrivalSpeed="12.61" duration="76.00" routeLength="774.92" waitingTime="1.00" waitingCount="1" stopTime="0.00" timeLoss="13.32" rerouteNo="0" devices="tripinfo_371" vType="DEFAULT_VEHTYPE" speedFactor="0.92" vaporized=""/>
    <tripinfo id="197" depart="27.00" departLane="702_4way_58to4way_57_0" departPos="5.10" departSpeed="0.00" departDelay="3.36" arrival="122.00" arrivalLane="24_4way_34to3way_14_0" arrivalPos="185.60" arrivalSpeed="13.71" duration="95.00" routeLength="1180.30" waitingTime="0.00" waitingCount="0" stopTime="0.00" timeLoss="9.19" rerouteNo="0" devices="tripinfo_197" vType="DEFAULT_VEHTYPE" speedFactor="1.01" vaporized=""/>
    <tripinfo id="906" depart="109.00" departLane="669_4way_58to4way_38_0" departPos="5.10" departSpeed="0.00" departDelay="0.28" arrival="127.00" arrivalLane="669_4way_58to4way_38_0" arrivalPos="185.60" arrivalSpeed="12.63" duration="18.00" routeLength="180.50" waitingTime="0.00" waitingCount="0" stopTime="0.00" timeLoss="3.88" rerouteNo="0" devices="tripinfo_906" vType="DEFAULT_VEHTYPE" speedFactor="0.95" vaporized=""/>
    <tripinfo id="187" depart="23.00" departLane="42_3way_180to4way_181_0" departPos="5.10" departSpeed="0.00" departDelay="0.56" arrival="130.00" arrivalLane="198_4way_121to4way_122_0" arrivalPos="185.60" arrivalSpeed="14.28" duration="107.00" routeLength="974.93" waitingTime="24.00" waitingCount="1" stopTime="0.00" timeLoss="36.75" rerouteNo="0" devices="tripinfo_187" vType="DEFAULT_VEHTYPE" speedFactor="1.03" vaporized=""/>
    <tripinfo id="585" depart="71.00" departLane="347_4way_205to4way_225_0" departPos="5.10" departSpeed="0.00" departDelay="0.80" arrival="130.00" arrivalLane="381_4way_224to4way_223_0" arrivalPos="185.60" arrivalSpeed="6.34" duration="59.00" routeLength="580.30" waitingTime="0.00" waitingCount="0" stopTime="0.00" timeLoss="10.33" rerouteNo="0" devices="tripinfo_585" vType="DEFAULT_VEHTYPE" speedFactor="0.88" vaporized=""/>
    <tripinfo id="103" depart="13.00" departLane="655_4way_366to4way_367_0" departPos="5.10" departSpeed="0.00" departDelay="0.64" arrival="132.00" arrivalLane="661_4way_370to4way_371_0" arrivalPos="185.60" arrivalSpeed="6.32" duration="119.00" routeLength="980.50" waitingTime="14.00" waitingCount="1" stopTime="0.00" timeLoss="57.23" rerouteNo="0" devices="tripinfo_103" vType="DEFAULT_VEHTYPE" speedFactor="1.15" vaporized=""/>
    <tripinfo id="675" depart="81.00" departLane="421_4way_263to4way_243_0" departPos="5.10" departSpeed="0.00" departDelay="0.00" arrival="132.00" arrivalLane="343_4way_223to4way_203_0" arrivalPos="185.60" arrivalSpeed="12.65" duration="51.00" routeLength="580.50" waitingTime="0.00" waitingCount="0" stopTime="0.00" timeLoss="4.79" rerouteNo="0" devices="tripinfo_675" vType="DEFAULT_VEHTYPE" speedFactor="0.91" vaporized=""/>
    <tripinfo id="507" depart="61.00" departLane="453_4way_26to4way_27_0" departPos="5.10" departSpeed="0.00" departDelay="0.16" arrival="135.00" arrivalLane="140_3way_8to3way_9_0" arrivalPos="185.60" arrivalSpeed="13.16" duration="74.00" routeLength="774.92" waitingTime="2.00" waitingCount="1" stopTime="0.00" timeLoss="14.67" rerouteNo="0" devices="tripinfo_507" vType="DEFAULT_VEHTYPE" speedFactor="0.97" vaporized=""/>
    <tripinfo id="973" depart="119.00" departLane="69_3way_4to3way_3_0" departPos="5.10" departSpeed="0.00" departDelay="2.24" arrival="137.00" arrivalLane="69_3way_4to3way_3_0" arrivalPos="185.60" arrivalSpeed="12.04" duration="18.00" routeLength="180.50" waitingTime="0.00" waitingCount="0" stopTime="0.00" timeLoss="3.68" rerouteNo="0" devices="tripinfo_973" vType="DEFAULT_VEHTYPE" speedFactor="0.93" vaporized=""/>
    <tripinfo id="367" depart="45.00" departLane="634_4way_371to4way_351_0" departPos="5.10" departSpeed="0.00" departDelay="0.96" arrival="143.00" arrivalLane="623_4way_348to4way_347_0" arrivalPos="185.60" arrivalSpeed="15.69" duration="98.00" routeLength="975.13" waitingTime="23.00" waitingCount="1" stopTime="0.00" timeLoss="35.42" rerouteNo="0" devices="tripinfo_367" vType="DEFAULT_VEHTYPE" speedFactor="1.14" vaporized=""/>
    <tripinfo id="884" depart="107.00" departLane="315_4way_187to4way_188_0" departPos="5.10" departSpeed="0.00" departDelay="0.92" arrival="143.00" arrivalLane="317_4way_188to4way_189_0" arrivalPos="185.60" arrivalSpeed="11.70" duration="36.00" routeLength="380.50" waitingTime="0.00" waitingCount="0" stopTime="0.00" timeLoss="3.77" rerouteNo="0" devices="tripinfo_884" vType="DEFAULT_VEHTYPE" speedFactor="0.87" vaporized=""/>
    <tripinfo id="1047" depart="126.00" departLane="270_4way_162to4way_163_0" departPos="5.10" departSpeed="0.00" departDelay="0.36" arrival="143.00" arrivalLane="270_4way_162to4way_163_0" arrivalPos="185.60" arrivalSpeed="13.14" duration="17.00" routeLength="180.50" waitingTime="0.00" waitingCount="0" stopTime="0.00" timeLoss="3.74" rerouteNo="0" devices="tripinfo_1047" vType="DEFAULT_VEHTYPE" speedFactor="1.01" vaporized=""/>
    <tripinfo id="478" depart="58.00" departLane="315_4way_188to4way_187_0" departPos="5.10" departSpeed="0.00" departDelay="0.64" arrival="145.00" arrivalLane="351_4way_207to4way_227_0" arrivalPos="185.60" arrivalSpeed="12.23" duration="87.00" routeLength="575.13" waitingTime="30.00" waitingCount="1" stopTime="0.00" timeLoss="42.34" rerouteNo="0" devices="tripinfo_478" vType="DEFAULT_VEHTYPE" speedFactor="0.96" vaporized=""/>
    <tripinfo id="579" depart="70.00" departLane="108_4way_370to3way_390_0" departPos="5.10" departSpeed="0.00" departDelay="0.52" arrival="145.00" arrivalLane="111_3way_392to3way_393_0" arrivalPos="185.60" arrivalSpeed="11.98" duration="75.00" routeLength="775.13" waitingTime="1.00" waitingCount="1" stopTime="0.00" timeLoss="13.56" rerouteNo="0" devices="tripinfo_579" vType="DEFAULT_VEHTYPE" speedFactor="0.92" vaporized=""/>
    <tripinfo id="891" depart="107.00" departLane="51_3way_239to3way_219_0" departPos="5.10" departSpeed="0.00" departDelay="0.08" arrival="145.00" arrivalLane="52_3way_219to4way_218_0" arrivalPos="185.60" arrivalSpeed="12.20" duration="38.00" routeLength="375.13" waitingTime="0.00" waitingCount="0" stopTime="0.00" timeLoss="7.17" rerouteNo="0" devices="tripinfo_891" vType="DEFAULT_VEHTYPE" speedFactor="0.90" vaporized=""/>
    <tripinfo id="115" depart="14.00" departLane="455_4way_261to4way_262_0" departPos="5.10" departSpeed="0.00" departDelay="0.20" arrival="146.00" arrivalLane="380_4way_242to4way_222_0" arrivalPos="185.60" arrivalSpeed="11.65" duration="132.00" routeLength="575.13" waitingTime="75.00" waitingCount="1" stopTime="0.00" timeLoss="86.29" rerouteNo="0" devices="tripinfo_115" vType="DEFAULT_VEHTYPE" speedFactor="0.92" vaporized=""/>
    <tripinfo id="320" depart="39.00" departLane="409_4way_237to4way_236_0" departPos="5.10" departSpeed="0.00" departDelay="0.60" arrival="146.00" arrivalLane="408_4way_235to4way_255_0" arrivalPos="185.60" arrivalSpeed="10.88" duration="107.00" routeLength="575.13" waitingTime="49.00" waitingCount="1" stopTime="0.00" timeLoss="58.82" rerouteNo="0" devices="tripinfo_320" vType="DEFAULT_VEHTYPE" speedFactor="0.88" vaporized=""/>
    <tripinfo id="662" depart="80.00" departLane="629_4way_36to4way_35_0" departPos="5.10" departSpeed="0.00" departDelay="0.56" arrival="147.00" arrivalLane="699_4way_55to4way_75_0" arrivalPos="185.60" arrivalSpeed="12.32" duration="67.00" routeLength="575.13" waitingTime="10.00" waitingCount="1" stopTime="0.00" timeLoss="23.56" rerouteNo="0" devices="tripinfo_662" vType="DEFAULT_VEHTYPE" speedFactor="0.98" vaporized=""/>
    <tripinfo id="712" depart="86.00" departLane="418_4way_242to4way_243_0" departPos="5.10" departSpeed="0.00" departDelay="0.56" arrival="147.00" arrivalLane="382_4way_243to4way_223_0" arrivalPos="185.60" arrivalSpeed="13.35" duration="61.00" routeLength="375.13" waitingTime="23.00" waitingCount="1" stopTime="0.00" timeLoss="33.09" rerouteNo="0" devices="tripinfo_712" vType="DEFAULT_VEHTYPE" speedFactor="1.03" vaporized=""/>
    <tripinfo id="7" depart="1.00" departLane="77_3way_359to3way_339_0" departPos="5.10" departSpeed="0.00" departDelay="0.16" arrival="148.00" arrivalLane="55_3way_259to3way_239_0" arrivalPos="185.60" arrivalSpeed="11.84" duration="147.00" routeLength="1180.50" waitingTime="37.00" waitingCount="2" stopTime="0.00" timeLoss="56.81" rerouteNo="0" devices="tripinfo_7" vType="DEFAULT_VEHTYPE" speedFactor="0.95" vaporized=""/>
    <tripinfo id="780" depart="94.00" departLane="693_4way_72to4way_52_0" departPos="5.10" departSpeed="0.00" departDelay="0.40" arrival="150.00" arrivalLane="690_4way_52to4way_51_0" arrivalPos="185.60" arrivalSpeed="11.13" duration="56.00" routeLength="375.13" waitingTime="13.00" waitingCount="1" stopTime="0.00" timeLoss="22.35" rerouteNo="0" devices="tripinfo_780" vType="DEFAULT_VEHTYPE" speedFactor="0.82" vaporized=""/>
    <tripinfo id="418" depart="51.00" departLane="131_3way_59to4way_58_0" departPos="5.10" departSpeed="0.00" departDelay="0.84" arrival="151.00" arrivalLane="703_4way_57to4way_77_0" arrivalPos="185.60" arrivalSpeed="10.66" duration="100.00" routeLength="575.13" waitingTime="35.00" waitingCount="1" stopTime="0.00" timeLoss="46.29" rerouteNo="0" devices="tripinfo_418" vType="DEFAULT_VEHTYPE" speedFactor="0.79" vaporized=""/>
    <tripinfo id="360" depart="44.00" departLane="301_4way_177to4way_197_0" departPos="5.10" departSpeed="0.00" departDelay="0.80" arrival="152.00" arrivalLane="364_4way_214to4way_213_0" arrivalPos="185.60" arrivalSpeed="12.94" duration="108.00" routeLength="1180.30" waitingTime="5.00" waitingCount="1" stopTime="0.00" timeLoss="22.17" rerouteNo="0" devices="tripinfo_360" vType="DEFAULT_VEHTYPE" speedFactor="1.01" vaporized=""/>
    <tripinfo id="887" depart="107.00" departLane="8_3way_100to3way_80_0" departPos="5.10" departSpeed="0.00" departDelay="0.56" arrival="156.00" arrivalLane="126_3way_60to3way_40_0" arrivalPos="185.60" arrivalSpeed="13.06" duration="49.00" routeLength="580.50" waitingTime="0.00" waitingCount="0" stopTime="0.00" timeLoss="4.92" rerouteNo="0" devices="tripinfo_887" vType="DEFAULT_VEHTYPE" speedFactor="0.96" vaporized=""/>
    <tripinfo id="1171" depart="141.00" departLane="476_4way_270to4way_290_0" departPos="5.10" departSpeed="0.00" departDelay="0.48" arrival="158.00" arrivalLane="476_4way_270to4way_290_0" arrivalPos="185.60" arrivalSpeed="13.41" duration="17.00" routeLength="180.50" waitingTime="0.00" waitingCount="0" stopTime="0.00" timeLoss="3.58" rerouteNo="0" devices="tripinfo_1171" vType="DEFAULT_VEHTYPE" speedFactor="0.97" vaporized=""/>
    <tripinfo id="711" depart="86.00" departLane="92_4way_363to3way_383_0" departPos="5.10" departSpeed="0.00" departDelay="0.68" arrival="159.00" arrivalLane="87_3way_382to3way_381_0" arrivalPos="185.60" arrivalSpeed="13.08" duration="73.00" routeLength="580.29" waitingTime="21.00" waitingCount="1" stopTime="0.00" timeLoss="31.28" rerouteNo="0" devices="tripinfo_711" vType="DEFAULT_VEHTYPE" speedFactor="1.03" vaporized=""/>
    <tripinfo id="863" depart="104.00" departLane="18_3way_120to4way_121_0" departPos="5.10" departSpeed="0.00" departDelay="0.44" arrival="160.00" arrivalLane="200_4way_122to4way_123_0" arrivalPos="185.60" arrivalSpeed="13.85" duration="56.00" routeLength="580.50" waitingTime="3.00" waitingCount="1" stopTime="0.00" timeLoss="13.70" rerouteNo="0" devices="tripinfo_863" vType="DEFAULT_VEHTYPE" speedFactor="1.01" vaporized=""/>
    <tripinfo id="493" depart="60.00" departLane="261_4way_155to4way_156_0" departPos="5.10" departSpeed="0.00" departDelay="0.84" arrival="161.00" arrivalLane="191_4way_136to4way_116_0" arrivalPos="185.60" arrivalSpeed="11.91" duration="101.00" routeLength="575.13" waitingTime="45.00" waitingCount="1" stopTime="0.00" timeLoss="56.46" rerouteNo="0" devices="tripinfo_493" vType="DEFAULT_VEHTYPE" speedFactor="0.94" vaporized=""/>
    <tripinfo id="476" depart="58.00" departLane="270_4way_163to4way_162_0" departPos="5.10" departSpeed="0.00" departDelay="0.88" arrival="164.00" arrivalLane="34_4way_161to3way_160_0" arrivalPos="185.60" arrivalSpeed="11.41" duration="106.00" routeLength="580.50" waitingTime="47.00" waitingCount="1" stopTime="0.00" timeLoss="57.17" rerouteNo="0" devices="tripinfo_476" vType="DEFAULT_VEHTYPE" speedFactor="0.87" vaporized=""/>
    <tripinfo id="1195" depart="146.00" departLane="601_4way_354to4way_334_0" departPos="5.10" departSpeed="0.00" departDelay="2.60" arrival="164.00" arrivalLane="601_4way_354to4way_334_0" arrivalPos="185.60" arrivalSpeed="12.76" duration="18.00" routeLength="180.50" waitingTime="0.00" waitingCount="0" stopTime="0.00" timeLoss="3.36" rerouteNo="0" devices="tripinfo_1195" vType="DEFAULT_VEHTYPE" speedFactor="0.93" vaporized=""/>
    <tripinfo id="559" depart="68.00" departLane="665_4way_374to4way_375_0" departPos="5.10" departSpeed="0.00" departDelay="0.92" arrival="167.00" arrivalLane="644_4way_376to4way_356_0" arrivalPos="185.60" arrivalSpeed="11.20" duration="99.00" routeLength="575.13" waitingTime="37.00" waitingCount="1" stopTime="0.00" timeLoss="49.32" rerouteNo="0" devices="tripinfo_559" vType="DEFAULT_VEHTYPE" speedFactor="0.85" vaporized=""/>
    <tripinfo id="985" depart="119.00" departLane="60_3way_259to4way_258_0" departPos="5.10" departSpeed="0.00" departDelay="0.80" arrival="167.00" arrivalLane="451_4way_257to4way_277_0" arrivalPos="185.60" arrivalSpeed="14.34" duration="48.00" routeLength="575.13" waitingTime="0.00" waitingCount="0" stopTime="0.00" timeLoss="6.80" rerouteNo="0" devices="tripinfo_985" vType="DEFAULT_VEHTYPE" speedFactor="1.03" vaporized=""/>
    <tripinfo id="959" depart="116.00" departLane="92_3way_383to4way_363_0" departPos="5.10" departSpeed="0.00" departDelay="0.92" arrival="169.00" arrivalLane="613_4way_343to4way_342_0" arrivalPos="185.60" arrivalSpeed="11.84" duration="53.00" routeLength="575.13" waitingTime="0.00" waitingCount="0" stopTime="0.00" timeLoss="7.12" rerouteNo="0" devices="tripinfo_959" vType="DEFAULT_VEHTYPE" speedFactor="0.92" vaporized=""/>
    <tripinfo id="1261" depart="152.00" departLane="602_4way_335to4way_336_0" departPos="5.10" departSpeed="0.00" departDelay="0.68" arrival="169.00" arrivalLane="602_4way_335to4way_336_0" arrivalPos="185.60" arrivalSpeed="14.02" duration="17.00" routeLength="180.50" waitingTime="0.00" waitingCount="0" stopTime="0.00" timeLoss="3.83" rerouteNo="0" devices="tripinfo_1261" vType="DEFAULT_VEHTYPE" speedFactor="1.03" vaporized=""/>
    <tripinfo id="1259" depart="152.00" departLane="152_4way_123to4way_103_0" departPos="5.10" departSpeed="0.00" departDelay="0.92" arrival="171.00" arrivalLane="152_4way_123to4way_103_0" arrivalPos="185.60" arrivalSpeed="11.05" duration="19.00" routeLength="180.50" waitingTime="0.00" waitingCount="0" stopTime="0.00" timeLoss="3.32" rerouteNo="0" devices="tripinfo_1259" vType="DEFAULT_VEHTYPE" speedFactor="0.88" vaporized=""/>
    <tripinfo id="278" depart="34.00" departLane="434_4way_26to4way_25_0" departPos="5.10" departSpeed="0.00" departDelay="0.64" arrival="179.00" arrivalLane="375_4way_23to4way_22_0" arrivalPos="185.60" arrivalSpeed="12.59" duration="145.00" routeLength="780.50" waitingTime="72.00" waitingCount="1" stopTime="0.00" timeLoss="83.20" rerouteNo="0" devices="tripinfo_278" vType="DEFAULT_VEHTYPE" speedFactor="0.91" vaporized=""/>