<?xml version="1.0" encoding="UTF-8"?>

<!-- generated on 2023-07-27 00:04:03 by Eclipse SUMO sumo Version 1.12.0
<configuration xmlns:xsi="http://www.w3.org/2001/XMLSchema-instance" xsi:noNamespaceSchemaLocation="http://sumo.dlr.de/xsd/sumoConfiguration.xsd">

    <input>
        <net-file value="../../data_generation/sq.net.xml"/>
        <route-files value="../../data_generation/sq.rou.xml"/>
    </input>

    <output>
        <tripinfo-output value="tripinfo.xml"/>
        <statistic-output value="statistic.xml"/>
    </output>

    <time>
        <begin value="0"/>
        <end value="3600"/>
    </time>

    <processing>
        <time-to-teleport value="-1"/>
    </processing>

    <traci_server>
        <remote-port value="47397"/>
    </traci_server>

    <random_number>
        <seed value="1395"/>
    </random_number>

    <gui_only>
        <gui-settings-file value="../../data_generation/view_HY_0402.xml"/>
    </gui_only>

</configuration>
-->

<tripinfos xmlns:xsi="http://www.w3.org/2001/XMLSchema-instance" xsi:noNamespaceSchemaLocation="http://sumo.dlr.de/xsd/tripinfo_file.xsd">
    <tripinfo id="1" depart="2.00" departLane="373_4way_66to4way_67_0" departPos="5.10" departSpeed="0.00" departDelay="0.67" arrival="11.00" arrivalLane="373_4way_66to4way_67_0" arrivalPos="85.60" arrivalSpeed="13.32" duration="9.00" routeLength="80.50" waitingTime="0.00" waitingCount="0" stopTime="0.00" timeLoss="3.36" rerouteNo="0" devices="tripinfo_1" vType="DEFAULT_VEHTYPE" speedFactor="1.04" vaporized=""/>
    <tripinfo id="18" depart="26.00" departLane="137_4way_112to4way_97_0" departPos="5.10" departSpeed="0.00" departDelay="2.00" arrival="36.00" arrivalLane="137_4way_112to4way_97_0" arrivalPos="85.60" arrivalSpeed="12.36" duration="10.00" routeLength="80.50" waitingTime="0.00" waitingCount="0" stopTime="0.00" timeLoss="3.02" rerouteNo="0" devices="tripinfo_18" vType="DEFAULT_VEHTYPE" speedFactor="0.96" vaporized=""/>
    <tripinfo id="22" depart="30.00" departLane="403_4way_98to4way_83_0" departPos="5.10" departSpeed="0.00" departDelay="0.67" arrival="39.00" arrivalLane="403_4way_98to4way_83_0" arrivalPos="85.60" arrivalSpeed="13.26" duration="9.00" routeLength="80.50" waitingTime="0.00" waitingCount="0" stopTime="0.00" timeLoss="2.91" rerouteNo="0" devices="tripinfo_22" vType="DEFAULT_VEHTYPE" speedFactor="1.00" vaporized=""/>
    <tripinfo id="7" depart="10.00" departLane="7_3way_119to3way_104_0" departPos="5.10" departSpeed="0.00" departDelay="0.67" arrival="43.00" arrivalLane="88_3way_74to3way_59_0" arrivalPos="85.60" arrivalSpeed="12.41" duration="33.00" routeLength="380.50" waitingTime="0.00" waitingCount="0" stopTime="0.00" timeLoss="4.15" rerouteNo="0" devices="tripinfo_7" vType="DEFAULT_VEHTYPE" speedFactor="0.95" vaporized=""/>
    <tripinfo id="20" depart="27.00" departLane="395_4way_94to4way_79_0" departPos="5.10" departSpeed="0.00" departDelay="0.33" arrival="72.00" arrivalLane="317_4way_34to4way_33_0" arrivalPos="85.60" arrivalSpeed="11.99" duration="45.00" routeLength="475.13" waitingTime="0.00" waitingCount="0" stopTime="0.00" timeLoss="6.10" rerouteNo="0" devices="tripinfo_20" vType="DEFAULT_VEHTYPE" speedFactor="0.89" vaporized=""/>
    <tripinfo id="47" depart="63.00" departLane="40_3way_180to4way_181_0" departPos="5.10" departSpeed="0.00" departDelay="0.33" arrival="73.00" arrivalLane="40_3way_180to4way_181_0" arrivalPos="85.60" arrivalSpeed="11.91" duration="10.00" routeLength="80.50" waitingTime="0.00" waitingCount="0" stopTime="0.00" timeLoss="3.05" rerouteNo="0" devices="tripinfo_47" vType="DEFAULT_VEHTYPE" speedFactor="0.90" vaporized=""/>
    <tripinfo id="26" depart="35.00" departLane="34_3way_164to4way_163_0" departPos="5.10" departSpeed="0.00" departDelay="0.33" arrival="76.00" arrivalLane="227_4way_163to4way_178_0" arrivalPos="85.60" arrivalSpeed="13.15" duration="41.00" routeLength="175.13" waitingTime="18.00" waitingCount="1" stopTime="0.00" timeLoss="28.08" rerouteNo="0" devices="tripinfo_26" vType="DEFAULT_VEHTYPE" speedFactor="1.03" vaporized=""/>
    <tripinfo id="12" depart="16.00" departLane="270_4way_187to4way_202_0" departPos="5.10" departSpeed="0.00" departDelay="0.00" arrival="109.00" arrivalLane="71_3way_222to3way_223_0" arrivalPos="85.60" arrivalSpeed="15.36" duration="93.00" routeLength="775.13" waitingTime="33.00" waitingCount="1" stopTime="0.00" timeLoss="43.66" rerouteNo="0" devices="tripinfo_12" vType="DEFAULT_VEHTYPE" speedFactor="1.16" vaporized=""/>
    <tripinfo id="73" depart="98.00" departLane="199_4way_147to4way_162_0" departPos="5.10" departSpeed="0.00" departDelay="0.67" arrival="125.00" arrivalLane="34_4way_163to3way_164_0" arrivalPos="85.60" arrivalSpeed="13.58" duration="27.00" routeLength="275.13" waitingTime="0.00" waitingCount="0" stopTime="0.00" timeLoss="5.53" rerouteNo="0" devices="tripinfo_73" vType="DEFAULT_VEHTYPE" speedFactor="0.98" vaporized=""/>
    <tripinfo id="9" depart="12.00" departLane="248_4way_176to4way_175_0" departPos="5.10" departSpeed="0.00" departDelay="0.00" arrival="137.00" arrivalLane="357_4way_70to4way_55_0" arrivalPos="85.60" arrivalSpeed="11.49" duration="125.00" routeLength="880.30" waitingTime="43.00" waitingCount="1" stopTime="0.00" timeLoss="53.85" rerouteNo="0" devices="tripinfo_9" vType="DEFAULT_VEHTYPE" speedFactor="0.91" vaporized=""/>
    <tripinfo id="10" depart="14.00" departLane="170_4way_130to4way_145_0" departPos="5.10" departSpeed="0.00" departDelay="0.67" arrival="137.00" arrivalLane="198_4way_147to4way_148_0" arrivalPos="85.60" arrivalSpeed="14.13" duration="123.00" routeLength="375.13" waitingTime="77.00" waitingCount="2" stopTime="0.00" timeLoss="95.70" rerouteNo="0" devices="tripinfo_10" vType="DEFAULT_VEHTYPE" speedFactor="1.04" vaporized=""/>
    <tripinfo id="16" depart="22.00" departLane="184_4way_141to4way_140_0" departPos="5.10" departSpeed="0.00" departDelay="0.67" arrival="137.00" arrivalLane="183_4way_139to4way_154_0" arrivalPos="85.60" arrivalSpeed="12.22" duration="115.00" routeLength="275.13" waitingTime="79.00" waitingCount="2" stopTime="0.00" timeLoss="92.38" rerouteNo="0" devices="tripinfo_16" vType="DEFAULT_VEHTYPE" speedFactor="0.90" vaporized=""/>
    <tripinfo id="24" depart="32.00" departLane="340_4way_48to4way_47_0" departPos="5.10" departSpeed="0.00" departDelay="0.00" arrival="137.00" arrivalLane="366_4way_62to4way_77_0" arrivalPos="85.60" arrivalSpeed="13.44" duration="105.00" routeLength="275.13" waitingTime="69.00" waitingCount="2" stopTime="0.00" timeLoss="83.46" rerouteNo="0" devices="tripinfo_24" vType="DEFAULT_VEHTYPE" speedFactor="0.97" vaporized=""/>
    <tripinfo id="25" depart="34.00" departLane="128_4way_94to4way_109_0" departPos="5.10" departSpeed="0.00" departDelay="0.67" arrival="137.00" arrivalLane="209_4way_155to4way_156_0" arrivalPos="85.60" arrivalSpeed="13.10" duration="103.00" routeLength="575.13" waitingTime="45.00" waitingCount="1" stopTime="0.00" timeLoss="58.64" rerouteNo="0" devices="tripinfo_25" vType="DEFAULT_VEHTYPE" speedFactor="0.95" vaporized=""/>
    <tripinfo id="82" depart="110.00" departLane="171_4way_131to4way_132_0" departPos="5.10" departSpeed="0.00" departDelay="0.67" arrival="137.00" arrivalLane="173_4way_132to4way_133_0" arrivalPos="85.60" arrivalSpeed="12.51" duration="27.00" routeLength="180.50" waitingTime="4.00" waitingCount="1" stopTime="0.00" timeLoss="13.10" rerouteNo="0" devices="tripinfo_82" vType="DEFAULT_VEHTYPE" speedFactor="0.99" vaporized=""/>
    <tripinfo id="83" depart="111.00" departLane="256_4way_33to4way_18_0" departPos="5.10" departSpeed="0.00" departDelay="0.34" arrival="137.00" arrivalLane="77_4way_18to3way_3_0" arrivalPos="85.60" arrivalSpeed="12.74" duration="26.00" routeLength="180.50" waitingTime="3.00" waitingCount="1" stopTime="0.00" timeLoss="11.34" rerouteNo="0" devices="tripinfo_83" vType="DEFAULT_VEHTYPE" speedFactor="0.93" vaporized=""/>
    <tripinfo id="0" depart="0.00" departLane="352_4way_54to4way_53_0" departPos="5.10" departSpeed="0.00" departDelay="0.00" arrival="144.00" arrivalLane="374_4way_66to4way_81_0" arrivalPos="85.60" arrivalSpeed="13.25" duration="144.00" routeLength="475.13" waitingTime="94.00" waitingCount="2" stopTime="0.00" timeLoss="108.85" rerouteNo="0" devices="tripinfo_0" vType="DEFAULT_VEHTYPE" speedFactor="1.00" vaporized=""/>
    <tripinfo id="17" depart="23.00" departLane="137_4way_112to4way_97_0" departPos="5.10" departSpeed="0.00" departDelay="0.33" arrival="144.00" arrivalLane="86_3way_6to3way_5_0" arrivalPos="85.60" arrivalSpeed="14.05" duration="121.00" routeLength="875.13" waitingTime="48.00" waitingCount="1" stopTime="0.00" timeLoss="59.48" rerouteNo="0" devices="tripinfo_17" vType="DEFAULT_VEHTYPE" speedFactor="1.04" vaporized=""/>
    <tripinfo id="108" depart="144.00" departLane="125_4way_108to4way_93_0" departPos="5.10" departSpeed="0.00" departDelay="0.00" arrival="165.00" arrivalLane="410_4way_93to4way_92_0" arrivalPos="85.60" arrivalSpeed="11.26" duration="21.00" routeLength="175.13" waitingTime="0.00" waitingCount="0" stopTime="0.00" timeLoss="5.24" rerouteNo="0" devices="tripinfo_108" vType="DEFAULT_VEHTYPE" speedFactor="0.88" vaporized=""/>
    <tripinfo id="37" depart="50.00" departLane="103_3way_9to4way_24_0" departPos="5.10" departSpeed="0.00" departDelay="0.67" arrival="168.00" arrivalLane="142_4way_114to4way_129_0" arrivalPos="85.60" arrivalSpeed="12.72" duration="118.00" routeLength="780.50" waitingTime="49.00" waitingCount="1" stopTime="0.00" timeLoss="60.75" rerouteNo="0" devices="tripinfo_37" vType="DEFAULT_VEHTYPE" speedFactor="0.99" vaporized=""/>
    <tripinfo id="31" depart="42.00" departLane="66_3way_219to4way_204_0" departPos="5.10" departSpeed="0.00" departDelay="0.67" arrival="173.00" arrivalLane="352_4way_54to4way_53_0" arrivalPos="85.60" arrivalSpeed="14.38" duration="131.00" routeLength="1175.13" waitingTime="39.00" waitingCount="1" stopTime="0.00" timeLoss="53.80" rerouteNo="0" devices="tripinfo_31" vType="DEFAULT_VEHTYPE" speedFactor="1.11" vaporized=""/>
    <tripinfo id="115" depart="154.00" departLane="99_3way_75to4way_76_0" departPos="5.10" departSpeed="0.00" departDelay="0.67" arrival="190.00" arrivalLane="99_3way_75to4way_76_0" arrivalPos="85.60" arrivalSpeed="5.28" duration="36.00" routeLength="80.50" waitingTime="22.00" waitingCount="1" stopTime="0.00" timeLoss="29.56" rerouteNo="0" devices="tripinfo_115" vType="DEFAULT_VEHTYPE" speedFactor="0.92" vaporized=""/>
    <tripinfo id="65" depart="87.00" departLane="370_4way_64to4way_79_0" departPos="5.10" departSpeed="0.00" departDelay="0.34" arrival="193.00" arrivalLane="132_4way_111to4way_112_0" arrivalPos="85.60" arrivalSpeed="9.20" duration="106.00" routeLength="575.13" waitingTime="52.00" waitingCount="2" stopTime="0.00" timeLoss="69.98" rerouteNo="0" devices="tripinfo_65" vType="DEFAULT_VEHTYPE" speedFactor="1.20" vaporized=""/>
    <tripinfo id="34" depart="46.00" departLane="23_3way_149to3way_134_0" departPos="5.10" departSpeed="0.00" departDelay="0.67" arrival="197.00" arrivalLane="383_4way_72to4way_71_0" arrivalPos="85.60" arrivalSpeed="12.62" duration="151.00" routeLength="775.13" waitingTime="76.00" waitingCount="2" stopTime="0.00" timeLoss="92.05" rerouteNo="0" devices="tripinfo_34" vType="DEFAULT_VEHTYPE" speedFactor="0.96" vaporized=""/>
    <tripinfo id="59" depart="79.00" departLane="245_4way_173to4way_188_0" departPos="5.10" departSpeed="0.00" departDelay="0.33" arrival="197.00" arrivalLane="295_4way_205to4way_206_0" arrivalPos="85.60" arrivalSpeed="14.20" duration="118.00" routeLength="475.13" waitingTime="64.00" waitingCount="2" stopTime="0.00" timeLoss="83.48" rerouteNo="0" devices="tripinfo_59" vType="DEFAULT_VEHTYPE" speedFactor="1.03" vaporized=""/>
    <tripinfo id="81" depart="108.00" departLane="197_4way_161to4way_146_0" departPos="5.10" departSpeed="0.00" departDelay="0.00" arrival="197.00" arrivalLane="379_4way_70to4way_69_0" arrivalPos="85.60" arrivalSpeed="14.17" duration="89.00" routeLength="775.13" waitingTime="11.00" waitingCount="2" stopTime="0.00" timeLoss="34.40" rerouteNo="0" devices="tripinfo_81" vType="DEFAULT_VEHTYPE" speedFactor="1.05" vaporized=""/>
    <tripinfo id="93" depart="124.00" departLane="298_4way_22to4way_21_0" departPos="5.10" departSpeed="0.00" departDelay="0.00" arrival="197.00" arrivalLane="299_4way_21to4way_36_0" arrivalPos="85.60" arrivalSpeed="12.64" duration="73.00" routeLength="175.13" waitingTime="50.00" waitingCount="1" stopTime="0.00" timeLoss="59.43" rerouteNo="0" devices="tripinfo_93" vType="DEFAULT_VEHTYPE" speedFactor="1.00" vaporized=""/>
    <tripinfo id="8" depart="11.00" departLane="356_4way_56to4way_55_0" departPos="5.10" departSpeed="0.00" departDelay="0.33" arrival="204.00" arrivalLane="86_3way_6to3way_5_0" arrivalPos="85.60" arrivalSpeed="13.32" duration="193.00" routeLength="874.93" waitingTime="106.00" waitingCount="3" stopTime="0.00" timeLoss="127.49" rerouteNo="0" devices="tripinfo_8" vType="DEFAULT_VEHTYPE" speedFactor="0.98" vaporized=""/>
    <tripinfo id="78" depart="104.00" departLane="187_4way_141to4way_156_0" departPos="5.10" departSpeed="0.00" departDelay="0.00" arrival="204.00" arrivalLane="217_4way_159to4way_160_0" arrivalPos="85.60" arrivalSpeed="13.00" duration="100.00" routeLength="475.13" waitingTime="49.00" waitingCount="2" stopTime="0.00" timeLoss="65.86" rerouteNo="0" devices="tripinfo_78" vType="DEFAULT_VEHTYPE" speedFactor="1.03" vaporized=""/>
    <tripinfo id="110" depart="147.00" departLane="224_4way_176to4way_161_0" departPos="5.10" departSpeed="0.00" departDelay="0.34" arrival="206.00" arrivalLane="213_4way_158to4way_157_0" arrivalPos="85.60" arrivalSpeed="14.00" duration="59.00" routeLength="475.13" waitingTime="14.00" waitingCount="1" stopTime="0.00" timeLoss="25.46" rerouteNo="0" devices="tripinfo_110" vType="DEFAULT_VEHTYPE" speedFactor="1.05" vaporized=""/>
    <tripinfo id="103" depart="138.00" departLane="207_4way_154to4way_155_0" departPos="5.10" departSpeed="0.00" departDelay="0.67" arrival="207.00" arrivalLane="166_4way_143to4way_128_0" arrivalPos="85.60" arrivalSpeed="15.56" duration="69.00" routeLength="575.13" waitingTime="20.00" waitingCount="1" stopTime="0.00" timeLoss="32.18" rerouteNo="0" devices="tripinfo_103" vType="DEFAULT_VEHTYPE" speedFactor="1.15" vaporized=""/>
    <tripinfo id="44" depart="59.00" departLane="250_4way_177to4way_176_0" departPos="5.10" departSpeed="0.00" departDelay="0.33" arrival="208.00" arrivalLane="240_4way_172to4way_171_0" arrivalPos="85.60" arrivalSpeed="10.48" duration="149.00" routeLength="580.50" waitingTime="80.00" waitingCount="2" stopTime="0.00" timeLoss="95.07" rerouteNo="0" devices="tripinfo_44" vType="DEFAULT_VEHTYPE" speedFactor="0.78" vaporized=""/>
    <tripinfo id="86" depart="115.00" departLane="80_3way_5to3way_4_0" departPos="5.10" departSpeed="0.00" departDelay="0.34" arrival="209.00" arrivalLane="10_3way_105to3way_120_0" arrivalPos="85.60" arrivalSpeed="13.84" duration="94.00" routeLength="1277.30" waitingTime="0.00" waitingCount="0" stopTime="0.00" timeLoss="6.81" rerouteNo="0" devices="tripinfo_86" vType="DEFAULT_VEHTYPE" speedFactor="1.06" vaporized=""/>
    <tripinfo id="102" depart="136.00" departLane="74_3way_44to3way_29_0" departPos="5.10" departSpeed="0.00" departDelay="0.00" arrival="213.00" arrivalLane="90_3way_7to3way_6_0" arrivalPos="85.60" arrivalSpeed="13.98" duration="77.00" routeLength="977.30" waitingTime="0.00" waitingCount="0" stopTime="0.00" timeLoss="9.56" rerouteNo="0" devices="tripinfo_102" vType="DEFAULT_VEHTYPE" speedFactor="1.05" vaporized=""/>
    <tripinfo id="19" depart="26.00" departLane="165_4way_128to4way_129_0" departPos="5.10" departSpeed="0.00" departDelay="0.67" arrival="215.00" arrivalLane="310_4way_27to4way_28_0" arrivalPos="85.60" arrivalSpeed="12.30" duration="189.00" routeLength="1174.93" waitingTime="67.00" waitingCount="3" stopTime="0.00" timeLoss="91.60" rerouteNo="0" devices="tripinfo_19" vType="DEFAULT_VEHTYPE" speedFactor="0.89" vaporized=""/>
    <tripinfo id="98" depart="131.00" departLane="364_4way_76to4way_61_0" departPos="5.10" departSpeed="0.00" departDelay="0.34" arrival="216.00" arrivalLane="78_3way_45to3way_30_0" arrivalPos="85.60" arrivalSpeed="11.35" duration="85.00" routeLength="374.92" waitingTime="44.00" waitingCount="1" stopTime="0.00" timeLoss="53.00" rerouteNo="0" devices="tripinfo_98" vType="DEFAULT_VEHTYPE" speedFactor="0.88" vaporized=""/>
    <tripinfo id="60" depart="80.00" departLane="129_4way_110to4way_111_0" departPos="5.10" departSpeed="0.00" departDelay="0.00" arrival="220.00" arrivalLane="405_4way_99to4way_84_0" arrivalPos="85.60" arrivalSpeed="14.68" duration="140.00" routeLength="575.13" waitingTime="81.00" waitingCount="2" stopTime="0.00" timeLoss="101.19" rerouteNo="0" devices="tripinfo_60" vType="DEFAULT_VEHTYPE" speedFactor="1.12" vaporized=""/>
    <tripinfo id="80" depart="107.00" departLane="208_4way_154to4way_169_0" departPos="5.10" departSpeed="0.00" departDelay="0.34" arrival="221.00" arrivalLane="245_4way_173to4way_188_0" arrivalPos="85.60" arrivalSpeed="9.50" duration="114.00" routeLength="574.93" waitingTime="45.00" waitingCount="1" stopTime="0.00" timeLoss="58.74" rerouteNo="0" devices="tripinfo_80" vType="DEFAULT_VEHTYPE" speedFactor="0.78" vaporized=""/>
    <tripinfo id="14" depart="19.00" departLane="276_4way_19to4way_34_0" departPos="5.10" departSpeed="0.00" departDelay="0.33" arrival="223.00" arrivalLane="263_4way_184to4way_185_0" arrivalPos="85.60" arrivalSpeed="12.58" duration="204.00" routeLength="1175.13" waitingTime="94.00" waitingCount="2" stopTime="0.00" timeLoss="113.78" rerouteNo="0" devices="tripinfo_14" vType="DEFAULT_VEHTYPE" speedFactor="0.95" vaporized=""/>
    <tripinfo id="149" depart="199.00" departLane="116_4way_88to4way_103_0" departPos="5.10" departSpeed="0.00" departDelay="0.34" arrival="225.00" arrivalLane="150_4way_118to4way_133_0" arrivalPos="85.60" arrivalSpeed="12.66" duration="26.00" routeLength="280.50" waitingTime="0.00" waitingCount="0" stopTime="0.00" timeLoss="4.00" rerouteNo="0" devices="tripinfo_149" vType="DEFAULT_VEHTYPE" speedFactor="0.95" vaporized=""/>
    <tripinfo id="156" depart="208.00" departLane="7_3way_119to3way_104_0" departPos="5.10" departSpeed="0.00" departDelay="0.00" arrival="226.00" arrivalLane="8_3way_104to3way_89_0" arrivalPos="85.60" arrivalSpeed="12.12" duration="18.00" routeLength="180.50" waitingTime="0.00" waitingCount="0" stopTime="0.00" timeLoss="3.45" rerouteNo="0" devices="tripinfo_156" vType="DEFAULT_VEHTYPE" speedFactor="0.91" vaporized=""/>
    <tripinfo id="32" depart="43.00" departLane="365_4way_63to4way_62_0" departPos="5.10" departSpeed="0.00" departDelay="0.33" arrival="227.00" arrivalLane="19_3way_120to3way_135_0" arrivalPos="85.60" arrivalSpeed="12.71" duration="184.00" routeLength="775.13" waitingTime="106.00" waitingCount="3" stopTime="0.00" timeLoss="127.02" rerouteNo="0" devices="tripinfo_32" vType="DEFAULT_VEHTYPE" speedFactor="1.00" vaporized=""/>
    <tripinfo id="139" depart="186.00" departLane="251_4way_191to4way_176_0" departPos="5.10" departSpeed="0.00" departDelay="0.67" arrival="231.00" arrivalLane="213_4way_158to4way_157_0" arrivalPos="85.60" arrivalSpeed="14.21" duration="45.00" routeLength="575.13" waitingTime="0.00" waitingCount="0" stopTime="0.00" timeLoss="6.53" rerouteNo="0" devices="tripinfo_139" vType="DEFAULT_VEHTYPE" speedFactor="1.09" vaporized=""/>
    <tripinfo id="29" depart="39.00" departLane="339_4way_46to4way_61_0" departPos="5.10" departSpeed="0.00" departDelay="0.33" arrival="250.00" arrivalLane="286_4way_198to4way_199_0" arrivalPos="85.60" arrivalSpeed="4.71" duration="211.00" routeLength="1275.13" waitingTime="91.00" waitingCount="2" stopTime="0.00" timeLoss="113.80" rerouteNo="0" devices="tripinfo_29" vType="DEFAULT_VEHTYPE" speedFactor="0.95" vaporized=""/>
    <tripinfo id="58" depart="78.00" departLane="268_4way_186to4way_201_0" departPos="5.10" departSpeed="0.00" departDelay="0.67" arrival="250.00" arrivalLane="295_4way_205to4way_206_0" arrivalPos="85.60" arrivalSpeed="5.36" duration="172.00" routeLength="575.13" waitingTime="106.00" waitingCount="3" stopTime="0.00" timeLoss="127.00" rerouteNo="0" devices="tripinfo_58" vType="DEFAULT_VEHTYPE" speedFactor="0.93" vaporized=""/>
    <tripinfo id="167" depart="223.00" departLane="357_4way_55to4way_70_0" departPos="5.10" departSpeed="0.00" departDelay="0.34" arrival="250.00" arrivalLane="357_4way_55to4way_70_0" arrivalPos="85.60" arrivalSpeed="5.15" duration="27.00" routeLength="80.50" waitingTime="13.00" waitingCount="1" stopTime="0.00" timeLoss="20.05" rerouteNo="0" devices="tripinfo_167" vType="DEFAULT_VEHTYPE" speedFactor="0.85" vaporized=""/>
    <tripinfo id="2" depart="3.00" departLane="270_4way_202to4way_187_0" departPos="5.10" departSpeed="0.00" departDelay="0.33" arrival="253.00" arrivalLane="344_4way_50to4way_49_0" arrivalPos="85.60" arrivalSpeed="7.18" duration="250.00" routeLength="1275.13" waitingTime="134.00" waitingCount="3" stopTime="0.00" timeLoss="161.16" rerouteNo="0" devices="tripinfo_2" vType="DEFAULT_VEHTYPE" speedFactor="1.04" vaporized=""/>
    <tripinfo id="62" depart="83.00" departLane="376_4way_82to4way_67_0" departPos="5.10" departSpeed="0.00" departDelay="0.33" arrival="255.00" arrivalLane="344_4way_50to4way_49_0" arrivalPos="85.60" arrivalSpeed="8.38" duration="172.00" routeLength="475.13" waitingTime="111.00" waitingCount="3" stopTime="0.00" timeLoss="138.32" rerouteNo="0" devices="tripinfo_62" vType="DEFAULT_VEHTYPE" speedFactor="1.05" vaporized=""/>
    <tripinfo id="57" depart="76.00" departLane="206_4way_153to4way_168_0" departPos="5.10" departSpeed="0.00" departDelay="0.00" arrival="257.00" arrivalLane="246_4way_174to4way_175_0" arrivalPos="85.60" arrivalSpeed="12.41" duration="181.00" routeLength="775.13" waitingTime="91.00" waitingCount="3" stopTime="0.00" timeLoss="122.59" rerouteNo="0" devices="tripinfo_57" vType="DEFAULT_VEHTYPE" speedFactor="0.97" vaporized=""/>
    <tripinfo id="95" depart="127.00" departLane="11_3way_90to3way_105_0" departPos="5.10" departSpeed="0.00" departDelay="0.34" arrival="257.00" arrivalLane="230_4way_167to4way_168_0" arrivalPos="85.60" arrivalSpeed="11.70" duration="130.00" routeLength="775.13" waitingTime="47.00" waitingCount="1" stopTime="0.00" timeLoss="65.67" rerouteNo="0" devices="tripinfo_95" vType="DEFAULT_VEHTYPE" speedFactor="0.88" vaporized=""/>
    <tripinfo id="127" depart="170.00" departLane="8_3way_104to3way_89_0" departPos="5.10" departSpeed="0.00" departDelay="0.67" arrival="257.00" arrivalLane="408_4way_88to4way_87_0" arrivalPos="85.60" arrivalSpeed="13.49" duration="87.00" routeLength="275.13" waitingTime="55.00" waitingCount="1" stopTime="0.00" timeLoss="65.94" rerouteNo="0" devices="tripinfo_127" vType="DEFAULT_VEHTYPE" speedFactor="1.00" vaporized=""/>
    <tripinfo id="148" depart="198.00" departLane="196_4way_146to4way_147_0" departPos="5.10" departSpeed="0.00" departDelay="0.67" arrival="257.00" arrivalLane="28_4way_148to3way_149_0" arrivalPos="85.60" arrivalSpeed="14.43" duration="59.00" routeLength="280.50" waitingTime="29.00" waitingCount="1" stopTime="0.00" timeLoss="39.44" rerouteNo="0" devices="tripinfo_148" vType="DEFAULT_VEHTYPE" speedFactor="1.07" vaporized=""/>
    <tripinfo id="163" depart="218.00" departLane="216_4way_173to4way_158_0" departPos="5.10" departSpeed="0.00" departDelay="0.67" arrival="257.00" arrivalLane="191_4way_158to4way_143_0" arrivalPos="85.60" arrivalSpeed="12.22" duration="39.00" routeLength="180.50" waitingTime="17.00" waitingCount="1" stopTime="0.00" timeLoss="25.07" rerouteNo="0" devices="tripinfo_163" vType="DEFAULT_VEHTYPE" speedFactor="0.94" vaporized=""/>
    <tripinfo id="132" depart="176.00" departLane="404_4way_85to4way_84_0" departPos="5.10" departSpeed="0.00" departDelay="0.00" arrival="258.00" arrivalLane="403_4way_83to4way_98_0" arrivalPos="85.60" arrivalSpeed="10.88" duration="82.00" routeLength="275.13" waitingTime="47.00" waitingCount="1" stopTime="0.00" timeLoss="57.76" rerouteNo="0" devices="tripinfo_132" vType="DEFAULT_VEHTYPE" speedFactor="0.86" vaporized=""/>
    <tripinfo id="72" depart="99.00" departLane="293_4way_203to4way_204_0" departPos="5.10" departSpeed="0.00" departDelay="3.00" arrival="259.00" arrivalLane="222_4way_175to4way_160_0" arrivalPos="85.60" arrivalSpeed="15.17" duration="160.00" routeLength="475.13" waitingTime="101.00" waitingCount="3" stopTime="0.00" timeLoss="129.23" rerouteNo="0" devices="tripinfo_72" vType="DEFAULT_VEHTYPE" speedFactor="1.15" vaporized=""/>
    <tripinfo id="27" depart="36.00" departLane="56_3way_214to4way_199_0" departPos="5.10" departSpeed="0.00" departDelay="0.00" arrival="264.00" arrivalLane="11_3way_105to3way_90_0" arrivalPos="85.60" arrivalSpeed="13.45" duration="228.00" routeLength="1174.92" waitingTime="117.00" waitingCount="3" stopTime="0.00" timeLoss="144.30" rerouteNo="0" devices="tripinfo_27" vType="DEFAULT_VEHTYPE" speedFactor="1.03" vaporized=""/>
    <tripinfo id="42" depart="56.00" departLane="118_4way_106to4way_121_0" departPos="5.10" departSpeed="0.00" departDelay="0.00" arrival="264.00" arrivalLane="184_4way_140to4way_141_0" arrivalPos="85.60" arrivalSpeed="12.85" duration="208.00" routeLength="675.13" waitingTime="136.00" waitingCount="3" stopTime="0.00" timeLoss="158.07" rerouteNo="0" devices="tripinfo_42" vType="DEFAULT_VEHTYPE" speedFactor="0.99" vaporized=""/>
    <tripinfo id="50" depart="67.00" departLane="151_4way_121to4way_122_0" departPos="5.10" departSpeed="0.00" departDelay="0.33" arrival="266.00" arrivalLane="139_4way_128to4way_113_0" arrivalPos="85.60" arrivalSpeed="13.72" duration="199.00" routeLength="775.13" waitingTime="118.00" waitingCount="3" stopTime="0.00" timeLoss="143.17" rerouteNo="0" devices="tripinfo_50" vType="DEFAULT_VEHTYPE" speedFactor="1.01" vaporized=""/>
    <tripinfo id="63" depart="84.00" departLane="315_4way_32to4way_33_0" departPos="5.10" departSpeed="0.00" departDelay="0.00" arrival="270.00" arrivalLane="87_4way_20to3way_5_0" arrivalPos="85.60" arrivalSpeed="12.58" duration="186.00" routeLength="475.13" waitingTime="125.00" waitingCount="3" stopTime="0.00" timeLoss="149.29" rerouteNo="0" devices="tripinfo_63" vType="DEFAULT_VEHTYPE" speedFactor="0.95" vaporized=""/>
    <tripinfo id="69" depart="92.00" departLane="370_4way_79to4way_64_0" departPos="5.10" departSpeed="0.00" departDelay="0.00" arrival="277.00" arrivalLane="325_4way_37to4way_38_0" arrivalPos="85.60" arrivalSpeed="10.46" duration="185.00" routeLength="680.30" waitingTime="110.00" waitingCount="1" stopTime="0.00" timeLoss="123.43" rerouteNo="0" devices="tripinfo_69" vType="DEFAULT_VEHTYPE" speedFactor="0.82" vaporized=""/>
    <tripinfo id="28" depart="38.00" departLane="339_4way_61to4way_46_0" departPos="5.10" departSpeed="0.00" departDelay="0.67" arrival="279.00" arrivalLane="325_4way_37to4way_38_0" arrivalPos="85.60" arrivalSpeed="13.69" duration="241.00" routeLength="880.30" waitingTime="144.00" waitingCount="3" stopTime="0.00" timeLoss="177.77" rerouteNo="0" devices="tripinfo_28" vType="DEFAULT_VEHTYPE" speedFactor="1.03" vaporized=""/>
    <tripinfo id="97" depart="130.00" departLane="397_4way_80to4way_95_0" departPos="5.10" departSpeed="0.00" departDelay="0.67" arrival="280.00" arrivalLane="165_4way_128to4way_129_0" arrivalPos="85.60" arrivalSpeed="14.61" duration="150.00" routeLength="675.13" waitingTime="83.00" waitingCount="2" stopTime="0.00" timeLoss="102.75" rerouteNo="0" devices="tripinfo_97" vType="DEFAULT_VEHTYPE" speedFactor="1.06" vaporized=""/>
    <tripinfo id="206" depart="275.00" departLane="93_4way_61to3way_60_0" departPos="5.10" departSpeed="0.00" departDelay="0.34" arrival="285.00" arrivalLane="93_4way_61to3way_60_0" arrivalPos="85.60" arrivalSpeed="12.67" duration="10.00" routeLength="80.50" waitingTime="0.00" waitingCount="0" stopTime="0.00" timeLoss="2.88" rerouteNo="0" devices="tripinfo_206" vType="DEFAULT_VEHTYPE" speedFactor="0.92" vaporized=""/>
    <tripinfo id="13" depart="18.00" departLane="312_4way_28to4way_43_0" departPos="5.10" departSpeed="0.00" departDelay="0.67" arrival="288.00" arrivalLane="63_3way_219to3way_218_0" arrivalPos="85.60" arrivalSpeed="13.13" duration="270.00" routeLength="1780.29" waitingTime="110.00" waitingCount="3" stopTime="0.00" timeLoss="137.88" rerouteNo="0" devices="tripinfo_13" vType="DEFAULT_VEHTYPE" speedFactor="0.98" vaporized=""/>
    <tripinfo id="210" depart="280.00" departLane="54_3way_213to4way_198_0" departPos="5.10" departSpeed="0.00" departDelay="0.01" arrival="289.00" arrivalLane="54_3way_213to4way_198_0" arrivalPos="85.60" arrivalSpeed="15.70" duration="9.00" routeLength="80.50" waitingTime="0.00" waitingCount="0" stopTime="0.00" timeLoss="3.84" rerouteNo="0" devices="tripinfo_210" vType="DEFAULT_VEHTYPE" speedFactor="1.20" vaporized=""/>
    <tripinfo id="52" depart="70.00" departLane="212_4way_171to4way_156_0" departPos="5.10" departSpeed="0.00" departDelay="0.67" arrival="313.00" arrivalLane="338_4way_47to4way_46_0" arrivalPos="85.60" arrivalSpeed="8.29" duration="243.00" routeLength="1275.13" waitingTime="126.00" waitingCount="3" stopTime="0.00" timeLoss="152.91" rerouteNo="0" devices="tripinfo_52" vType="DEFAULT_VEHTYPE" speedFactor="1.03" vaporized=""/>
    <tripinfo id="46" depart="62.00" departLane="355_4way_54to4way_69_0" departPos="5.10" departSpeed="0.00" departDelay="0.67" arrival="316.00" arrivalLane="65_3way_219to3way_220_0" arrivalPos="85.60" arrivalSpeed="14.22" duration="254.00" routeLength="1175.13" waitingTime="143.00" waitingCount="4" stopTime="0.00" timeLoss="171.84" rerouteNo="0" devices="tripinfo_46" vType="DEFAULT_VEHTYPE" speedFactor="1.04" vaporized=""/>