<?xml version="1.0" encoding="UTF-8"?>

<!-- generated on 2023-07-27 01:33:13 by Eclipse SUMO sumo Version 1.12.0
<configuration xmlns:xsi="http://www.w3.org/2001/XMLSchema-instance" xsi:noNamespaceSchemaLocation="http://sumo.dlr.de/xsd/sumoConfiguration.xsd">

    <input>
        <net-file value="../../data_generation/sq.net.xml"/>
        <route-files value="../../data_generation/sq.rou.xml"/>
    </input>

    <output>
        <tripinfo-output value="tripinfo.xml"/>
        <statistic-output value="statistic.xml"/>
    </output>

    <time>
        <begin value="0"/>
        <end value="3600"/>
    </time>

    <processing>
        <time-to-teleport value="-1"/>
    </processing>

    <traci_server>
        <remote-port value="45355"/>
    </traci_server>

    <random_number>
        <seed value="1395"/>
    </random_number>

    <gui_only>
        <gui-settings-file value="../../data_generation/view_HY_0402.xml"/>
    </gui_only>

</configuration>
-->

<tripinfos xmlns:xsi="http://www.w3.org/2001/XMLSchema-instance" xsi:noNamespaceSchemaLocation="http://sumo.dlr.de/xsd/tripinfo_file.xsd">
    <tripinfo id="7" depart="18.00" departLane="32_3way_6to3way_5_0" departPos="5.10" departSpeed="0.00" departDelay="0.50" arrival="27.00" arrivalLane="32_3way_6to3way_5_0" arrivalPos="85.60" arrivalSpeed="13.11" duration="9.00" routeLength="80.50" waitingTime="0.00" waitingCount="0" stopTime="0.00" timeLoss="2.86" rerouteNo="0" devices="tripinfo_7" vType="DEFAULT_VEHTYPE" speedFactor="0.95" vaporized=""/>
    <tripinfo id="9" depart="23.00" departLane="99_4way_45to4way_44_0" departPos="5.10" departSpeed="0.00" departDelay="0.50" arrival="33.00" arrivalLane="99_4way_45to4way_44_0" arrivalPos="85.60" arrivalSpeed="11.98" duration="10.00" routeLength="80.50" waitingTime="0.00" waitingCount="0" stopTime="0.00" timeLoss="3.53" rerouteNo="0" devices="tripinfo_9" vType="DEFAULT_VEHTYPE" speedFactor="0.91" vaporized=""/>
    <tripinfo id="13" depart="33.00" departLane="19_4way_30to3way_31_0" departPos="5.10" departSpeed="0.00" departDelay="0.50" arrival="42.00" arrivalLane="19_4way_30to3way_31_0" arrivalPos="85.60" arrivalSpeed="13.33" duration="9.00" routeLength="80.50" waitingTime="0.00" waitingCount="0" stopTime="0.00" timeLoss="2.67" rerouteNo="0" devices="tripinfo_13" vType="DEFAULT_VEHTYPE" speedFactor="0.98" vaporized=""/>
    <tripinfo id="14" depart="35.00" departLane="61_4way_9to4way_17_0" departPos="5.10" departSpeed="0.00" departDelay="0.00" arrival="54.00" arrivalLane="59_4way_17to4way_18_0" arrivalPos="85.60" arrivalSpeed="12.98" duration="19.00" routeLength="175.13" waitingTime="0.00" waitingCount="0" stopTime="0.00" timeLoss="4.70" rerouteNo="0" devices="tripinfo_14" vType="DEFAULT_VEHTYPE" speedFactor="0.95" vaporized=""/>
    <tripinfo id="20" depart="50.00" departLane="15_4way_25to3way_24_0" departPos="5.10" departSpeed="0.00" departDelay="0.00" arrival="59.00" arrivalLane="15_4way_25to3way_24_0" arrivalPos="85.60" arrivalSpeed="11.73" duration="9.00" routeLength="80.50" waitingTime="0.00" waitingCount="0" stopTime="0.00" timeLoss="2.50" rerouteNo="0" devices="tripinfo_20" vType="DEFAULT_VEHTYPE" speedFactor="0.89" vaporized=""/>
    <tripinfo id="16" depart="40.00" departLane="85_4way_42to4way_34_0" departPos="5.10" departSpeed="0.00" departDelay="0.00" arrival="61.00" arrivalLane="82_4way_34to4way_33_0" arrivalPos="85.60" arrivalSpeed="12.20" duration="21.00" routeLength="175.13" waitingTime="0.00" waitingCount="0" stopTime="0.00" timeLoss="5.87" rerouteNo="0" devices="tripinfo_16" vType="DEFAULT_VEHTYPE" speedFactor="0.90" vaporized=""/>
    <tripinfo id="18" depart="46.00" departLane="53_4way_19to4way_11_0" departPos="5.10" departSpeed="0.00" departDelay="1.00" arrival="70.00" arrivalLane="53_4way_19to4way_11_0" arrivalPos="85.60" arrivalSpeed="4.30" duration="24.00" routeLength="80.50" waitingTime="10.00" waitingCount="1" stopTime="0.00" timeLoss="17.92" rerouteNo="0" devices="tripinfo_18" vType="DEFAULT_VEHTYPE" speedFactor="0.96" vaporized=""/>
    <tripinfo id="2" depart="5.00" departLane="65_4way_27to4way_19_0" departPos="5.10" departSpeed="0.00" departDelay="0.00" arrival="77.00" arrivalLane="59_4way_18to4way_17_0" arrivalPos="85.60" arrivalSpeed="14.18" duration="72.00" routeLength="275.13" waitingTime="41.00" waitingCount="1" stopTime="0.00" timeLoss="51.79" rerouteNo="0" devices="tripinfo_2" vType="DEFAULT_VEHTYPE" speedFactor="1.04" vaporized=""/>
    <tripinfo id="15" depart="38.00" departLane="100_4way_44to4way_52_0" departPos="5.10" departSpeed="0.00" departDelay="0.50" arrival="77.00" arrivalLane="40_3way_60to3way_59_0" arrivalPos="85.60" arrivalSpeed="13.75" duration="39.00" routeLength="280.29" waitingTime="9.00" waitingCount="1" stopTime="0.00" timeLoss="18.63" rerouteNo="0" devices="tripinfo_15" vType="DEFAULT_VEHTYPE" speedFactor="1.05" vaporized=""/>
    <tripinfo id="5" depart="13.00" departLane="63_4way_18to4way_26_0" departPos="5.10" departSpeed="0.00" departDelay="0.50" arrival="78.00" arrivalLane="106_4way_51to4way_52_0" arrivalPos="85.60" arrivalSpeed="12.89" duration="65.00" routeLength="575.13" waitingTime="7.00" waitingCount="1" stopTime="0.00" timeLoss="18.91" rerouteNo="0" devices="tripinfo_5" vType="DEFAULT_VEHTYPE" speedFactor="0.94" vaporized=""/>
    <tripinfo id="1" depart="3.00" departLane="73_4way_26to4way_27_0" departPos="5.10" departSpeed="0.00" departDelay="0.50" arrival="84.00" arrivalLane="53_4way_19to4way_11_0" arrivalPos="85.60" arrivalSpeed="14.22" duration="81.00" routeLength="275.13" waitingTime="50.00" waitingCount="1" stopTime="0.00" timeLoss="60.85" rerouteNo="0" devices="tripinfo_1" vType="DEFAULT_VEHTYPE" speedFactor="1.04" vaporized=""/>
    <tripinfo id="23" depart="59.00" departLane="14_3way_24to3way_32_0" departPos="5.10" departSpeed="0.00" departDelay="1.50" arrival="86.00" arrivalLane="26_3way_40to3way_48_0" arrivalPos="85.60" arrivalSpeed="11.52" duration="27.00" routeLength="280.50" waitingTime="0.00" waitingCount="0" stopTime="0.00" timeLoss="3.74" rerouteNo="0" devices="tripinfo_23" vType="DEFAULT_VEHTYPE" speedFactor="0.87" vaporized=""/>
    <tripinfo id="8" depart="20.00" departLane="57_4way_21to4way_13_0" departPos="5.10" departSpeed="0.00" departDelay="0.00" arrival="92.00" arrivalLane="10_3way_3to3way_2_0" arrivalPos="85.60" arrivalSpeed="12.34" duration="72.00" routeLength="475.13" waitingTime="26.00" waitingCount="1" stopTime="0.00" timeLoss="35.98" rerouteNo="0" devices="tripinfo_8" vType="DEFAULT_VEHTYPE" speedFactor="0.98" vaporized=""/>
    <tripinfo id="29" depart="73.00" departLane="4_3way_15to3way_23_0" departPos="5.10" departSpeed="0.00" departDelay="0.50" arrival="98.00" arrivalLane="18_3way_31to3way_39_0" arrivalPos="85.60" arrivalSpeed="13.09" duration="25.00" routeLength="280.50" waitingTime="0.00" waitingCount="0" stopTime="0.00" timeLoss="3.65" rerouteNo="0" devices="tripinfo_29" vType="DEFAULT_VEHTYPE" speedFactor="0.95" vaporized=""/>
    <tripinfo id="22" depart="55.00" departLane="12_3way_23to3way_31_0" departPos="5.10" departSpeed="0.00" departDelay="0.00" arrival="102.00" arrivalLane="34_3way_55to3way_62_0" arrivalPos="188.80" arrivalSpeed="13.40" duration="47.00" routeLength="583.70" waitingTime="0.00" waitingCount="0" stopTime="0.00" timeLoss="5.09" rerouteNo="0" devices="tripinfo_22" vType="DEFAULT_VEHTYPE" speedFactor="1.00" vaporized=""/>
    <tripinfo id="10" depart="25.00" departLane="107_4way_52to4way_53_0" departPos="5.10" departSpeed="0.00" departDelay="0.00" arrival="136.00" arrivalLane="103_4way_54to4way_46_0" arrivalPos="85.60" arrivalSpeed="13.14" duration="111.00" routeLength="275.13" waitingTime="75.00" waitingCount="2" stopTime="0.00" timeLoss="91.17" rerouteNo="0" devices="tripinfo_10" vType="DEFAULT_VEHTYPE" speedFactor="1.04" vaporized=""/>
    <tripinfo id="0" depart="0.00" departLane="52_4way_12to4way_11_0" departPos="5.10" departSpeed="0.00" departDelay="0.00" arrival="137.00" arrivalLane="63_4way_18to4way_26_0" arrivalPos="85.60" arrivalSpeed="12.96" duration="137.00" routeLength="375.13" waitingTime="95.00" waitingCount="2" stopTime="0.00" timeLoss="109.41" rerouteNo="0" devices="tripinfo_0" vType="DEFAULT_VEHTYPE" speedFactor="1.00" vaporized=""/>
    <tripinfo id="3" depart="8.00" departLane="102_4way_53to4way_45_0" departPos="5.10" departSpeed="0.00" departDelay="0.50" arrival="137.00" arrivalLane="71_4way_26to4way_25_0" arrivalPos="85.60" arrivalSpeed="11.99" duration="129.00" routeLength="675.13" waitingTime="57.00" waitingCount="2" stopTime="0.00" timeLoss="74.86" rerouteNo="0" devices="tripinfo_3" vType="DEFAULT_VEHTYPE" speedFactor="0.91" vaporized=""/>
    <tripinfo id="11" depart="28.00" departLane="89_4way_44to4way_36_0" departPos="5.10" departSpeed="0.00" departDelay="0.50" arrival="137.00" arrivalLane="82_4way_34to4way_33_0" arrivalPos="85.60" arrivalSpeed="13.00" duration="109.00" routeLength="375.13" waitingTime="64.00" waitingCount="2" stopTime="0.00" timeLoss="81.50" rerouteNo="0" devices="tripinfo_11" vType="DEFAULT_VEHTYPE" speedFactor="1.01" vaporized=""/>
    <tripinfo id="17" depart="43.00" departLane="53_4way_19to4way_11_0" departPos="5.10" departSpeed="0.00" departDelay="0.50" arrival="137.00" arrivalLane="10_3way_3to3way_2_0" arrivalPos="85.60" arrivalSpeed="13.93" duration="94.00" routeLength="275.13" waitingTime="58.00" waitingCount="2" stopTime="0.00" timeLoss="73.75" rerouteNo="0" devices="tripinfo_17" vType="DEFAULT_VEHTYPE" speedFactor="1.04" vaporized=""/>
    <tripinfo id="36" depart="90.00" departLane="17_3way_3to4way_11_0" departPos="5.10" departSpeed="0.00" departDelay="0.00" arrival="141.00" arrivalLane="75_4way_27to4way_28_0" arrivalPos="85.60" arrivalSpeed="15.51" duration="51.00" routeLength="375.13" waitingTime="13.00" waitingCount="1" stopTime="0.00" timeLoss="26.44" rerouteNo="0" devices="tripinfo_36" vType="DEFAULT_VEHTYPE" speedFactor="1.16" vaporized=""/>
    <tripinfo id="52" depart="131.00" departLane="96_4way_42to4way_50_0" departPos="5.10" departSpeed="0.00" departDelay="1.00" arrival="141.00" arrivalLane="96_4way_42to4way_50_0" arrivalPos="85.60" arrivalSpeed="13.30" duration="10.00" routeLength="80.50" waitingTime="0.00" waitingCount="0" stopTime="0.00" timeLoss="3.47" rerouteNo="0" devices="tripinfo_52" vType="DEFAULT_VEHTYPE" speedFactor="1.03" vaporized=""/>
    <tripinfo id="27" depart="68.00" departLane="41_3way_59to4way_51_0" departPos="5.10" departSpeed="0.00" departDelay="0.50" arrival="144.00" arrivalLane="87_4way_43to4way_35_0" arrivalPos="85.60" arrivalSpeed="14.00" duration="76.00" routeLength="280.50" waitingTime="47.00" waitingCount="1" stopTime="0.00" timeLoss="55.95" rerouteNo="0" devices="tripinfo_27" vType="DEFAULT_VEHTYPE" speedFactor="1.03" vaporized=""/>
    <tripinfo id="24" depart="60.00" departLane="72_4way_25to4way_33_0" departPos="5.10" departSpeed="0.00" departDelay="0.00" arrival="147.00" arrivalLane="93_4way_41to4way_42_0" arrivalPos="85.60" arrivalSpeed="12.27" duration="87.00" routeLength="275.13" waitingTime="54.00" waitingCount="1" stopTime="0.00" timeLoss="65.42" rerouteNo="0" devices="tripinfo_24" vType="DEFAULT_VEHTYPE" speedFactor="0.97" vaporized=""/>
    <tripinfo id="49" depart="123.00" departLane="38_3way_58to3way_59_0" departPos="5.10" departSpeed="0.00" departDelay="0.50" arrival="148.00" arrivalLane="98_4way_51to4way_43_0" arrivalPos="85.60" arrivalSpeed="14.16" duration="25.00" routeLength="275.13" waitingTime="0.00" waitingCount="0" stopTime="0.00" timeLoss="5.68" rerouteNo="0" devices="tripinfo_49" vType="DEFAULT_VEHTYPE" speedFactor="1.08" vaporized=""/>
    <tripinfo id="41" depart="103.00" departLane="41_3way_59to4way_51_0" departPos="5.10" departSpeed="0.00" departDelay="0.50" arrival="155.00" arrivalLane="84_4way_35to4way_34_0" arrivalPos="85.60" arrivalSpeed="15.02" duration="52.00" routeLength="375.13" waitingTime="11.00" waitingCount="1" stopTime="0.00" timeLoss="27.11" rerouteNo="0" devices="tripinfo_41" vType="DEFAULT_VEHTYPE" speedFactor="1.12" vaporized=""/>
    <tripinfo id="21" depart="53.00" departLane="16_3way_4to3way_3_0" departPos="5.10" departSpeed="0.00" departDelay="0.50" arrival="157.00" arrivalLane="98_4way_43to4way_51_0" arrivalPos="85.60" arrivalSpeed="11.37" duration="104.00" routeLength="675.13" waitingTime="31.00" waitingCount="1" stopTime="0.00" timeLoss="43.19" rerouteNo="0" devices="tripinfo_21" vType="DEFAULT_VEHTYPE" speedFactor="0.82" vaporized=""/>
    <tripinfo id="39" depart="98.00" departLane="48_4way_9to3way_8_0" departPos="5.10" departSpeed="0.00" departDelay="0.50" arrival="158.00" arrivalLane="20_3way_32to3way_40_0" arrivalPos="85.60" arrivalSpeed="14.36" duration="60.00" routeLength="475.13" waitingTime="17.00" waitingCount="1" stopTime="0.00" timeLoss="26.70" rerouteNo="0" devices="tripinfo_39" vType="DEFAULT_VEHTYPE" speedFactor="1.05" vaporized=""/>
    <tripinfo id="55" depart="138.00" departLane="36_3way_57to3way_58_0" departPos="5.10" departSpeed="0.00" departDelay="0.50" arrival="166.00" arrivalLane="41_3way_59to4way_51_0" arrivalPos="85.60" arrivalSpeed="12.56" duration="28.00" routeLength="275.13" waitingTime="0.00" waitingCount="0" stopTime="0.00" timeLoss="5.99" rerouteNo="0" devices="tripinfo_55" vType="DEFAULT_VEHTYPE" speedFactor="0.94" vaporized=""/>
    <tripinfo id="40" depart="100.00" departLane="98_4way_51to4way_43_0" departPos="5.10" departSpeed="0.00" departDelay="0.00" arrival="167.00" arrivalLane="16_3way_3to3way_4_0" arrivalPos="85.60" arrivalSpeed="14.30" duration="67.00" routeLength="680.29" waitingTime="8.00" waitingCount="1" stopTime="0.00" timeLoss="20.80" rerouteNo="0" devices="tripinfo_40" vType="DEFAULT_VEHTYPE" speedFactor="1.08" vaporized=""/>
    <tripinfo id="66" depart="165.00" departLane="96_4way_50to4way_42_0" departPos="5.10" departSpeed="0.00" departDelay="0.00" arrival="175.00" arrivalLane="96_4way_50to4way_42_0" arrivalPos="85.60" arrivalSpeed="11.01" duration="10.00" routeLength="80.50" waitingTime="0.00" waitingCount="0" stopTime="0.00" timeLoss="3.04" rerouteNo="0" devices="tripinfo_66" vType="DEFAULT_VEHTYPE" speedFactor="0.86" vaporized=""/>
    <tripinfo id="71" depart="178.00" departLane="54_4way_12to4way_13_0" departPos="5.10" departSpeed="0.00" departDelay="0.50" arrival="187.00" arrivalLane="54_4way_12to4way_13_0" arrivalPos="85.60" arrivalSpeed="14.35" duration="9.00" routeLength="80.50" waitingTime="0.00" waitingCount="0" stopTime="0.00" timeLoss="3.53" rerouteNo="0" devices="tripinfo_71" vType="DEFAULT_VEHTYPE" speedFactor="1.13" vaporized=""/>
    <tripinfo id="67" depart="168.00" departLane="84_4way_35to4way_34_0" departPos="5.10" departSpeed="0.00" departDelay="0.50" arrival="189.00" arrivalLane="85_4way_34to4way_42_0" arrivalPos="85.60" arrivalSpeed="12.07" duration="21.00" routeLength="175.13" waitingTime="0.00" waitingCount="0" stopTime="0.00" timeLoss="5.37" rerouteNo="0" devices="tripinfo_67" vType="DEFAULT_VEHTYPE" speedFactor="0.88" vaporized=""/>
    <tripinfo id="12" depart="30.00" departLane="75_4way_27to4way_28_0" departPos="5.10" departSpeed="0.00" departDelay="0.00" arrival="196.00" arrivalLane="12_3way_31to3way_23_0" arrivalPos="85.60" arrivalSpeed="14.94" duration="166.00" routeLength="475.13" waitingTime="111.00" waitingCount="3" stopTime="0.00" timeLoss="135.90" rerouteNo="0" devices="tripinfo_12" vType="DEFAULT_VEHTYPE" speedFactor="1.16" vaporized=""/>
    <tripinfo id="30" depart="75.00" departLane="19_3way_31to4way_30_0" departPos="5.10" departSpeed="0.00" departDelay="0.00" arrival="196.00" arrivalLane="76_4way_27to4way_35_0" arrivalPos="85.60" arrivalSpeed="13.32" duration="121.00" routeLength="475.13" waitingTime="72.00" waitingCount="2" stopTime="0.00" timeLoss="87.88" rerouteNo="0" devices="tripinfo_30" vType="DEFAULT_VEHTYPE" speedFactor="1.05" vaporized=""/>
    <tripinfo id="19" depart="48.00" departLane="97_4way_43to4way_44_0" departPos="5.10" departSpeed="0.00" departDelay="0.50" arrival="197.00" arrivalLane="81_4way_38to4way_30_0" arrivalPos="85.60" arrivalSpeed="11.55" duration="149.00" routeLength="475.13" waitingTime="89.00" waitingCount="3" stopTime="0.00" timeLoss="109.43" rerouteNo="0" devices="tripinfo_19" vType="DEFAULT_VEHTYPE" speedFactor="0.89" vaporized=""/>
    <tripinfo id="32" depart="80.00" departLane="32_3way_6to3way_5_0" departPos="5.10" departSpeed="0.00" departDelay="0.00" arrival="197.00" arrivalLane="57_4way_13to4way_21_0" arrivalPos="85.60" arrivalSpeed="12.95" duration="117.00" routeLength="275.13" waitingTime="84.00" waitingCount="2" stopTime="0.00" timeLoss="95.86" rerouteNo="0" devices="tripinfo_32" vType="DEFAULT_VEHTYPE" speedFactor="1.00" vaporized=""/>
    <tripinfo id="45" depart="113.00" departLane="54_4way_12to4way_13_0" departPos="5.10" departSpeed="0.00" departDelay="0.50" arrival="197.00" arrivalLane="4_3way_15to3way_23_0" arrivalPos="85.60" arrivalSpeed="13.37" duration="84.00" routeLength="380.29" waitingTime="40.00" waitingCount="2" stopTime="0.00" timeLoss="55.66" rerouteNo="0" devices="tripinfo_45" vType="DEFAULT_VEHTYPE" speedFactor="1.00" vaporized=""/>
    <tripinfo id="59" depart="148.00" departLane="50_4way_10to4way_18_0" departPos="5.10" departSpeed="0.00" departDelay="0.50" arrival="197.00" arrivalLane="64_4way_19to4way_20_0" arrivalPos="85.60" arrivalSpeed="13.52" duration="49.00" routeLength="275.13" waitingTime="16.00" waitingCount="1" stopTime="0.00" timeLoss="28.57" rerouteNo="0" devices="tripinfo_59" vType="DEFAULT_VEHTYPE" speedFactor="1.03" vaporized=""/>
    <tripinfo id="72" depart="180.00" departLane="13_4way_22to3way_23_0" departPos="5.10" departSpeed="0.00" departDelay="0.00" arrival="198.00" arrivalLane="4_3way_23to3way_15_0" arrivalPos="85.60" arrivalSpeed="15.56" duration="18.00" routeLength="175.13" waitingTime="0.00" waitingCount="0" stopTime="0.00" timeLoss="5.83" rerouteNo="0" devices="tripinfo_72" vType="DEFAULT_VEHTYPE" speedFactor="1.15" vaporized=""/>
    <tripinfo id="44" depart="110.00" departLane="95_4way_43to4way_42_0" departPos="5.10" departSpeed="0.00" departDelay="0.00" arrival="199.00" arrivalLane="27_4way_41to3way_40_0" arrivalPos="85.60" arrivalSpeed="9.67" duration="89.00" routeLength="280.50" waitingTime="50.00" waitingCount="2" stopTime="0.00" timeLoss="62.51" rerouteNo="0" devices="tripinfo_44" vType="DEFAULT_VEHTYPE" speedFactor="0.78" vaporized=""/>
    <tripinfo id="64" depart="160.00" departLane="59_4way_17to4way_18_0" departPos="5.10" departSpeed="0.00" departDelay="0.00" arrival="200.00" arrivalLane="62_4way_18to4way_19_0" arrivalPos="85.60" arrivalSpeed="13.31" duration="40.00" routeLength="180.50" waitingTime="16.00" waitingCount="1" stopTime="0.00" timeLoss="25.72" rerouteNo="0" devices="tripinfo_64" vType="DEFAULT_VEHTYPE" speedFactor="0.96" vaporized=""/>
    <tripinfo id="68" depart="170.00" departLane="60_4way_17to4way_25_0" departPos="5.10" departSpeed="0.00" departDelay="0.00" arrival="202.00" arrivalLane="84_4way_34to4way_35_0" arrivalPos="85.60" arrivalSpeed="14.91" duration="32.00" routeLength="375.13" waitingTime="0.00" waitingCount="0" stopTime="0.00" timeLoss="6.46" rerouteNo="0" devices="tripinfo_68" vType="DEFAULT_VEHTYPE" speedFactor="1.09" vaporized=""/>
    <tripinfo id="60" depart="151.00" departLane="76_4way_27to4way_35_0" departPos="5.10" departSpeed="0.00" departDelay="1.00" arrival="203.00" arrivalLane="90_4way_37to4way_38_0" arrivalPos="85.60" arrivalSpeed="14.51" duration="52.00" routeLength="375.13" waitingTime="14.00" waitingCount="1" stopTime="0.00" timeLoss="27.20" rerouteNo="0" devices="tripinfo_60" vType="DEFAULT_VEHTYPE" speedFactor="1.12" vaporized=""/>
    <tripinfo id="28" depart="70.00" departLane="44_3way_60to4way_52_0" departPos="5.10" departSpeed="0.00" departDelay="0.00" arrival="204.00" arrivalLane="82_4way_34to4way_33_0" arrivalPos="85.60" arrivalSpeed="13.60" duration="134.00" routeLength="575.13" waitingTime="75.00" waitingCount="2" stopTime="0.00" timeLoss="92.66" rerouteNo="0" devices="tripinfo_28" vType="DEFAULT_VEHTYPE" speedFactor="1.03" vaporized=""/>
    <tripinfo id="50" depart="125.00" departLane="81_4way_38to4way_30_0" departPos="5.10" departSpeed="0.00" departDelay="0.00" arrival="204.00" arrivalLane="77_4way_29to4way_28_0" arrivalPos="85.60" arrivalSpeed="13.81" duration="79.00" routeLength="275.13" waitingTime="50.00" waitingCount="1" stopTime="0.00" timeLoss="58.09" rerouteNo="0" devices="tripinfo_50" vType="DEFAULT_VEHTYPE" speedFactor="1.01" vaporized=""/>
    <tripinfo id="61" depart="153.00" departLane="49_4way_11to4way_10_0" departPos="5.10" departSpeed="0.00" departDelay="0.50" arrival="206.00" arrivalLane="61_4way_9to4way_17_0" arrivalPos="85.60" arrivalSpeed="12.90" duration="53.00" routeLength="275.13" waitingTime="22.00" waitingCount="1" stopTime="0.00" timeLoss="32.61" rerouteNo="0" devices="tripinfo_61" vType="DEFAULT_VEHTYPE" speedFactor="1.01" vaporized=""/>
    <tripinfo id="58" depart="145.00" departLane="106_4way_51to4way_52_0" departPos="5.10" departSpeed="0.00" departDelay="0.00" arrival="207.00" arrivalLane="102_4way_53to4way_45_0" arrivalPos="85.60" arrivalSpeed="12.20" duration="62.00" routeLength="275.13" waitingTime="28.00" waitingCount="1" stopTime="0.00" timeLoss="39.72" rerouteNo="0" devices="tripinfo_58" vType="DEFAULT_VEHTYPE" speedFactor="0.93" vaporized=""/>
    <tripinfo id="51" depart="128.00" departLane="96_4way_42to4way_50_0" departPos="5.10" departSpeed="0.00" departDelay="0.50" arrival="209.00" arrivalLane="40_3way_59to3way_60_0" arrivalPos="85.60" arrivalSpeed="10.01" duration="81.00" routeLength="375.13" waitingTime="35.00" waitingCount="1" stopTime="0.00" timeLoss="43.56" rerouteNo="0" devices="tripinfo_51" vType="DEFAULT_VEHTYPE" speedFactor="0.74" vaporized=""/>
    <tripinfo id="4" depart="10.00" departLane="8_3way_8to3way_16_0" departPos="5.10" departSpeed="0.00" departDelay="0.00" arrival="212.00" arrivalLane="90_4way_37to4way_38_0" arrivalPos="85.60" arrivalSpeed="13.45" duration="202.00" routeLength="875.13" waitingTime="114.00" waitingCount="3" stopTime="0.00" timeLoss="139.34" rerouteNo="0" devices="tripinfo_4" vType="DEFAULT_VEHTYPE" speedFactor="1.02" vaporized=""/>
    <tripinfo id="48" depart="120.00" departLane="3_3way_1to4way_9_0" departPos="5.10" departSpeed="0.00" departDelay="0.00" arrival="216.00" arrivalLane="66_4way_20to4way_21_0" arrivalPos="85.60" arrivalSpeed="11.54" duration="96.00" routeLength="575.13" waitingTime="34.00" waitingCount="1" stopTime="0.00" timeLoss="45.81" rerouteNo="0" devices="tripinfo_48" vType="DEFAULT_VEHTYPE" speedFactor="0.83" vaporized=""/>
    <tripinfo id="25" depart="63.00" departLane="6_3way_15to4way_14_0" departPos="5.10" departSpeed="0.00" departDelay="0.50" arrival="250.00" arrivalLane="103_4way_46to4way_54_0" arrivalPos="85.60" arrivalSpeed="5.29" duration="187.00" routeLength="575.13" waitingTime="124.00" waitingCount="3" stopTime="0.00" timeLoss="142.78" rerouteNo="0" devices="tripinfo_25" vType="DEFAULT_VEHTYPE" speedFactor="0.95" vaporized=""/>
    <tripinfo id="65" depart="163.00" departLane="36_3way_57to3way_58_0" departPos="5.10" departSpeed="0.00" departDelay="0.50" arrival="250.00" arrivalLane="18_3way_39to3way_31_0" arrivalPos="85.60" arrivalSpeed="5.54" duration="87.00" routeLength="977.30" waitingTime="13.00" waitingCount="1" stopTime="0.00" timeLoss="28.03" rerouteNo="0" devices="tripinfo_65" vType="DEFAULT_VEHTYPE" speedFactor="1.20" vaporized=""/>
    <tripinfo id="81" depart="205.00" departLane="91_4way_37to4way_45_0" departPos="5.10" departSpeed="0.00" departDelay="2.50" arrival="250.00" arrivalLane="101_4way_45to4way_46_0" arrivalPos="85.60" arrivalSpeed="4.77" duration="45.00" routeLength="175.13" waitingTime="22.00" waitingCount="1" stopTime="0.00" timeLoss="32.41" rerouteNo="0" devices="tripinfo_81" vType="DEFAULT_VEHTYPE" speedFactor="1.05" vaporized=""/>
    <tripinfo id="57" depart="143.00" departLane="95_4way_42to4way_43_0" departPos="5.10" departSpeed="0.00" departDelay="0.50" arrival="253.00" arrivalLane="99_4way_44to4way_45_0" arrivalPos="85.60" arrivalSpeed="8.10" duration="110.00" routeLength="280.50" waitingTime="72.00" waitingCount="2" stopTime="0.00" timeLoss="88.67" rerouteNo="0" devices="tripinfo_57" vType="DEFAULT_VEHTYPE" speedFactor="0.97" vaporized=""/>
    <tripinfo id="53" depart="133.00" departLane="90_4way_38to4way_37_0" departPos="5.10" departSpeed="0.00" departDelay="0.50" arrival="256.00" arrivalLane="46_4way_53to3way_61_0" arrivalPos="85.60" arrivalSpeed="16.65" duration="123.00" routeLength="375.13" waitingTime="82.00" waitingCount="2" stopTime="0.00" timeLoss="100.81" rerouteNo="0" devices="tripinfo_53" vType="DEFAULT_VEHTYPE" speedFactor="1.27" vaporized=""/>
    <tripinfo id="54" depart="139.00" departLane="77_4way_29to4way_28_0" departPos="5.10" departSpeed="0.00" departDelay="4.00" arrival="256.00" arrivalLane="71_4way_26to4way_25_0" arrivalPos="85.60" arrivalSpeed="13.77" duration="117.00" routeLength="380.50" waitingTime="75.00" waitingCount="2" stopTime="0.00" timeLoss="91.37" rerouteNo="0" devices="tripinfo_54" vType="DEFAULT_VEHTYPE" speedFactor="1.07" vaporized=""/>
    <tripinfo id="26" depart="65.00" departLane="23_3way_39to4way_38_0" departPos="5.10" departSpeed="0.00" departDelay="0.00" arrival="257.00" arrivalLane="47_4way_54to3way_62_0" arrivalPos="85.60" arrivalSpeed="13.36" duration="192.00" routeLength="375.13" waitingTime="140.00" waitingCount="3" stopTime="0.00" timeLoss="165.21" rerouteNo="0" devices="tripinfo_26" vType="DEFAULT_VEHTYPE" speedFactor="1.03" vaporized=""/>
    <tripinfo id="33" depart="83.00" departLane="32_3way_6to3way_5_0" departPos="5.10" departSpeed="0.00" departDelay="0.50" arrival="257.00" arrivalLane="69_4way_21to4way_29_0" arrivalPos="85.60" arrivalSpeed="14.11" duration="174.00" routeLength="375.13" waitingTime="124.00" waitingCount="3" stopTime="0.00" timeLoss="147.22" rerouteNo="0" devices="tripinfo_33" vType="DEFAULT_VEHTYPE" speedFactor="1.06" vaporized=""/>
    <tripinfo id="38" depart="95.00" departLane="12_3way_23to3way_31_0" departPos="5.10" departSpeed="0.00" departDelay="0.00" arrival="257.00" arrivalLane="36_3way_58to3way_57_0" arrivalPos="85.60" arrivalSpeed="12.56" duration="162.00" routeLength="1083.70" waitingTime="67.00" waitingCount="2" stopTime="0.00" timeLoss="83.42" rerouteNo="0" devices="tripinfo_38" vType="DEFAULT_VEHTYPE" speedFactor="1.00" vaporized=""/>
    <tripinfo id="42" depart="105.00" departLane="32_3way_6to3way_5_0" departPos="5.10" departSpeed="0.00" departDelay="0.00" arrival="257.00" arrivalLane="50_4way_10to4way_18_0" arrivalPos="85.60" arrivalSpeed="13.68" duration="152.00" routeLength="575.13" waitingTime="86.00" waitingCount="3" stopTime="0.00" timeLoss="109.16" rerouteNo="0" devices="tripinfo_42" vType="DEFAULT_VEHTYPE" speedFactor="0.99" vaporized=""/>
    <tripinfo id="63" depart="158.00" departLane="36_3way_57to3way_58_0" departPos="5.10" departSpeed="0.00" departDelay="0.50" arrival="257.00" arrivalLane="87_4way_43to4way_35_0" arrivalPos="85.60" arrivalSpeed="12.50" duration="99.00" routeLength="475.13" waitingTime="50.00" waitingCount="1" stopTime="0.00" timeLoss="62.27" rerouteNo="0" devices="tripinfo_63" vType="DEFAULT_VEHTYPE" speedFactor="0.95" vaporized=""/>
    <tripinfo id="86" depart="215.00" departLane="46_3way_61to4way_53_0" departPos="5.10" departSpeed="0.00" departDelay="0.00" arrival="257.00" arrivalLane="107_4way_53to4way_52_0" arrivalPos="85.60" arrivalSpeed="14.70" duration="42.00" routeLength="175.13" waitingTime="18.00" waitingCount="1" stopTime="0.00" timeLoss="28.90" rerouteNo="0" devices="tripinfo_86" vType="DEFAULT_VEHTYPE" speedFactor="1.06" vaporized=""/>
    <tripinfo id="35" depart="88.00" departLane="53_4way_11to4way_19_0" departPos="5.10" departSpeed="0.00" departDelay="0.50" arrival="258.00" arrivalLane="101_4way_45to4way_46_0" arrivalPos="85.60" arrivalSpeed="12.70" duration="170.00" routeLength="675.13" waitingTime="92.00" waitingCount="3" stopTime="0.00" timeLoss="117.45" rerouteNo="0" devices="tripinfo_35" vType="DEFAULT_VEHTYPE" speedFactor="0.94" vaporized=""/>
    <tripinfo id="97" depart="243.00" departLane="40_3way_59to3way_60_0" departPos="5.10" departSpeed="0.00" departDelay="0.50" arrival="259.00" arrivalLane="43_3way_60to3way_61_0" arrivalPos="85.60" arrivalSpeed="13.69" duration="16.00" routeLength="180.50" waitingTime="0.00" waitingCount="0" stopTime="0.00" timeLoss="3.55" rerouteNo="0" devices="tripinfo_97" vType="DEFAULT_VEHTYPE" speedFactor="1.06" vaporized=""/>
    <tripinfo id="34" depart="85.00" departLane="93_4way_41to4way_42_0" departPos="5.10" departSpeed="0.00" departDelay="0.00" arrival="260.00" arrivalLane="101_4way_45to4way_46_0" arrivalPos="85.60" arrivalSpeed="13.28" duration="175.00" routeLength="480.50" waitingTime="119.00" waitingCount="3" stopTime="0.00" timeLoss="138.08" rerouteNo="0" devices="tripinfo_34" vType="DEFAULT_VEHTYPE" speedFactor="0.96" vaporized=""/>
    <tripinfo id="56" depart="140.00" departLane="48_3way_8to4way_9_0" departPos="5.10" departSpeed="0.00" departDelay="0.00" arrival="264.00" arrivalLane="54_4way_12to4way_13_0" arrivalPos="85.60" arrivalSpeed="13.80" duration="124.00" routeLength="480.50" waitingTime="72.00" waitingCount="2" stopTime="0.00" timeLoss="89.85" rerouteNo="0" devices="tripinfo_56" vType="DEFAULT_VEHTYPE" speedFactor="1.02" vaporized=""/>
    <tripinfo id="82" depart="205.00" departLane="7_3way_24to3way_16_0" departPos="5.10" departSpeed="0.00" departDelay="0.00" arrival="267.00" arrivalLane="2_3way_8to3way_1_0" arrivalPos="188.80" arrivalSpeed="13.45" duration="62.00" routeLength="383.70" waitingTime="22.00" waitingCount="1" stopTime="0.00" timeLoss="33.26" rerouteNo="0" devices="tripinfo_82" vType="DEFAULT_VEHTYPE" speedFactor="0.99" vaporized=""/>