<?xml version="1.0" encoding="UTF-8"?>

<!-- generated on 2023-07-28 21:15:25 by Eclipse SUMO sumo Version 1.12.0
<configuration xmlns:xsi="http://www.w3.org/2001/XMLSchema-instance" xsi:noNamespaceSchemaLocation="http://sumo.dlr.de/xsd/sumoConfiguration.xsd">

    <input>
        <net-file value="../../data_generation/sq.net.xml"/>
        <route-files value="../../data_generation/sq.rou.xml"/>
    </input>

    <output>
        <tripinfo-output value="tripinfo.xml"/>
        <statistic-output value="statistic.xml"/>
    </output>

    <time>
        <begin value="0"/>
        <end value="3600"/>
    </time>

    <processing>
        <time-to-teleport value="-1"/>
    </processing>

    <traci_server>
        <remote-port value="60079"/>
    </traci_server>

    <random_number>
        <seed value="1395"/>
    </random_number>

    <gui_only>
        <gui-settings-file value="../../data_generation/view_HY_0402.xml"/>
    </gui_only>

</configuration>
-->

<tripinfos xmlns:xsi="http://www.w3.org/2001/XMLSchema-instance" xsi:noNamespaceSchemaLocation="http://sumo.dlr.de/xsd/tripinfo_file.xsd">
    <tripinfo id="7" depart="2.00" departLane="32_3way_6to3way_5_0" departPos="5.10" departSpeed="0.00" departDelay="0.91" arrival="11.00" arrivalLane="32_3way_6to3way_5_0" arrivalPos="85.60" arrivalSpeed="12.75" duration="9.00" routeLength="80.50" waitingTime="0.00" waitingCount="0" stopTime="0.00" timeLoss="2.83" rerouteNo="0" devices="tripinfo_7" vType="DEFAULT_VEHTYPE" speedFactor="0.95" vaporized=""/>
    <tripinfo id="9" depart="2.00" departLane="99_4way_45to4way_44_0" departPos="5.10" departSpeed="0.00" departDelay="0.59" arrival="12.00" arrivalLane="99_4way_45to4way_44_0" arrivalPos="85.60" arrivalSpeed="11.98" duration="10.00" routeLength="80.50" waitingTime="0.00" waitingCount="0" stopTime="0.00" timeLoss="3.05" rerouteNo="0" devices="tripinfo_9" vType="DEFAULT_VEHTYPE" speedFactor="0.91" vaporized=""/>
    <tripinfo id="13" depart="3.00" departLane="19_4way_30to3way_31_0" departPos="5.10" departSpeed="0.00" departDelay="0.97" arrival="12.00" arrivalLane="19_4way_30to3way_31_0" arrivalPos="85.60" arrivalSpeed="12.74" duration="9.00" routeLength="80.50" waitingTime="0.00" waitingCount="0" stopTime="0.00" timeLoss="2.83" rerouteNo="0" devices="tripinfo_13" vType="DEFAULT_VEHTYPE" speedFactor="0.98" vaporized=""/>
    <tripinfo id="20" depart="4.00" departLane="15_4way_25to3way_24_0" departPos="5.10" departSpeed="0.00" departDelay="0.88" arrival="13.00" arrivalLane="15_4way_25to3way_24_0" arrivalPos="85.60" arrivalSpeed="11.79" duration="9.00" routeLength="80.50" waitingTime="0.00" waitingCount="0" stopTime="0.00" timeLoss="2.34" rerouteNo="0" devices="tripinfo_20" vType="DEFAULT_VEHTYPE" speedFactor="0.89" vaporized=""/>
    <tripinfo id="18" depart="6.00" departLane="53_4way_19to4way_11_0" departPos="5.10" departSpeed="0.00" departDelay="3.19" arrival="16.00" arrivalLane="53_4way_19to4way_11_0" arrivalPos="85.60" arrivalSpeed="13.08" duration="10.00" routeLength="80.50" waitingTime="0.00" waitingCount="0" stopTime="0.00" timeLoss="3.37" rerouteNo="0" devices="tripinfo_18" vType="DEFAULT_VEHTYPE" speedFactor="0.96" vaporized=""/>
    <tripinfo id="66" depart="11.00" departLane="96_4way_50to4way_42_0" departPos="5.10" departSpeed="0.00" departDelay="0.69" arrival="21.00" arrivalLane="96_4way_50to4way_42_0" arrivalPos="85.60" arrivalSpeed="11.81" duration="10.00" routeLength="80.50" waitingTime="0.00" waitingCount="0" stopTime="0.00" timeLoss="2.96" rerouteNo="0" devices="tripinfo_66" vType="DEFAULT_VEHTYPE" speedFactor="0.86" vaporized=""/>
    <tripinfo id="71" depart="12.00" departLane="54_4way_12to4way_13_0" departPos="5.10" departSpeed="0.00" departDelay="0.91" arrival="21.00" arrivalLane="54_4way_12to4way_13_0" arrivalPos="85.60" arrivalSpeed="15.01" duration="9.00" routeLength="80.50" waitingTime="0.00" waitingCount="0" stopTime="0.00" timeLoss="3.03" rerouteNo="0" devices="tripinfo_71" vType="DEFAULT_VEHTYPE" speedFactor="1.13" vaporized=""/>
    <tripinfo id="10" depart="2.00" departLane="107_4way_52to4way_53_0" departPos="5.10" departSpeed="0.00" departDelay="0.44" arrival="28.00" arrivalLane="103_4way_54to4way_46_0" arrivalPos="85.60" arrivalSpeed="14.15" duration="26.00" routeLength="275.13" waitingTime="0.00" waitingCount="0" stopTime="0.00" timeLoss="6.09" rerouteNo="0" devices="tripinfo_10" vType="DEFAULT_VEHTYPE" speedFactor="1.04" vaporized=""/>
    <tripinfo id="118" depart="19.00" departLane="39_4way_50to3way_58_0" departPos="5.10" departSpeed="0.00" departDelay="0.57" arrival="28.00" arrivalLane="39_4way_50to3way_58_0" arrivalPos="85.60" arrivalSpeed="14.13" duration="9.00" routeLength="80.50" waitingTime="0.00" waitingCount="0" stopTime="0.00" timeLoss="2.84" rerouteNo="0" devices="tripinfo_118" vType="DEFAULT_VEHTYPE" speedFactor="1.05" vaporized=""/>
    <tripinfo id="17" depart="3.00" departLane="53_4way_19to4way_11_0" departPos="5.10" departSpeed="0.00" departDelay="0.34" arrival="29.00" arrivalLane="10_3way_3to3way_2_0" arrivalPos="85.60" arrivalSpeed="13.47" duration="26.00" routeLength="275.13" waitingTime="0.00" waitingCount="0" stopTime="0.00" timeLoss="6.14" rerouteNo="0" devices="tripinfo_17" vType="DEFAULT_VEHTYPE" speedFactor="1.04" vaporized=""/>
    <tripinfo id="125" depart="20.00" departLane="78_4way_28to4way_36_0" departPos="5.10" departSpeed="0.00" departDelay="0.47" arrival="29.00" arrivalLane="78_4way_28to4way_36_0" arrivalPos="85.60" arrivalSpeed="12.61" duration="9.00" routeLength="80.50" waitingTime="0.00" waitingCount="0" stopTime="0.00" timeLoss="2.81" rerouteNo="0" devices="tripinfo_125" vType="DEFAULT_VEHTYPE" speedFactor="0.95" vaporized=""/>
    <tripinfo id="126" depart="20.00" departLane="42_3way_6to4way_14_0" departPos="5.10" departSpeed="0.00" departDelay="0.32" arrival="29.00" arrivalLane="42_3way_6to4way_14_0" arrivalPos="85.60" arrivalSpeed="13.38" duration="9.00" routeLength="80.50" waitingTime="0.00" waitingCount="0" stopTime="0.00" timeLoss="3.21" rerouteNo="0" devices="tripinfo_126" vType="DEFAULT_VEHTYPE" speedFactor="1.01" vaporized=""/>
    <tripinfo id="72" depart="12.00" departLane="13_4way_22to3way_23_0" departPos="5.10" departSpeed="0.00" departDelay="0.75" arrival="30.00" arrivalLane="4_3way_23to3way_15_0" arrivalPos="85.60" arrivalSpeed="15.75" duration="18.00" routeLength="175.13" waitingTime="0.00" waitingCount="0" stopTime="0.00" timeLoss="5.57" rerouteNo="0" devices="tripinfo_72" vType="DEFAULT_VEHTYPE" speedFactor="1.15" vaporized=""/>
    <tripinfo id="23" depart="4.00" departLane="14_3way_24to3way_32_0" departPos="5.10" departSpeed="0.00" departDelay="0.41" arrival="31.00" arrivalLane="26_3way_40to3way_48_0" arrivalPos="85.60" arrivalSpeed="11.98" duration="27.00" routeLength="280.50" waitingTime="0.00" waitingCount="0" stopTime="0.00" timeLoss="3.45" rerouteNo="0" devices="tripinfo_23" vType="DEFAULT_VEHTYPE" speedFactor="0.87" vaporized=""/>
    <tripinfo id="67" depart="11.00" departLane="84_4way_35to4way_34_0" departPos="5.10" departSpeed="0.00" departDelay="0.53" arrival="31.00" arrivalLane="85_4way_34to4way_42_0" arrivalPos="85.60" arrivalSpeed="11.01" duration="20.00" routeLength="175.13" waitingTime="0.00" waitingCount="0" stopTime="0.00" timeLoss="4.47" rerouteNo="0" devices="tripinfo_67" vType="DEFAULT_VEHTYPE" speedFactor="0.88" vaporized=""/>
    <tripinfo id="132" depart="22.00" departLane="39_4way_50to3way_58_0" departPos="5.10" departSpeed="0.00" departDelay="1.38" arrival="32.00" arrivalLane="39_4way_50to3way_58_0" arrivalPos="85.60" arrivalSpeed="10.88" duration="10.00" routeLength="80.50" waitingTime="0.00" waitingCount="0" stopTime="0.00" timeLoss="3.00" rerouteNo="0" devices="tripinfo_132" vType="DEFAULT_VEHTYPE" speedFactor="0.86" vaporized=""/>
    <tripinfo id="148" depart="24.00" departLane="92_4way_38to4way_46_0" departPos="5.10" departSpeed="0.00" departDelay="0.88" arrival="33.00" arrivalLane="92_4way_38to4way_46_0" arrivalPos="85.60" arrivalSpeed="13.69" duration="9.00" routeLength="80.50" waitingTime="0.00" waitingCount="0" stopTime="0.00" timeLoss="2.91" rerouteNo="0" devices="tripinfo_148" vType="DEFAULT_VEHTYPE" speedFactor="1.07" vaporized=""/>
    <tripinfo id="97" depart="18.00" departLane="40_3way_59to3way_60_0" departPos="5.10" departSpeed="0.00" departDelay="2.85" arrival="35.00" arrivalLane="43_3way_60to3way_61_0" arrivalPos="85.60" arrivalSpeed="13.56" duration="17.00" routeLength="180.50" waitingTime="0.00" waitingCount="0" stopTime="0.00" timeLoss="4.07" rerouteNo="0" devices="tripinfo_97" vType="DEFAULT_VEHTYPE" speedFactor="1.06" vaporized=""/>
    <tripinfo id="59" depart="10.00" departLane="50_4way_10to4way_18_0" departPos="5.10" departSpeed="0.00" departDelay="0.78" arrival="36.00" arrivalLane="64_4way_19to4way_20_0" arrivalPos="85.60" arrivalSpeed="14.04" duration="26.00" routeLength="275.13" waitingTime="0.00" waitingCount="0" stopTime="0.00" timeLoss="5.75" rerouteNo="0" devices="tripinfo_59" vType="DEFAULT_VEHTYPE" speedFactor="1.03" vaporized=""/>
    <tripinfo id="44" depart="7.00" departLane="95_4way_43to4way_42_0" departPos="5.10" departSpeed="0.00" departDelay="0.13" arrival="37.00" arrivalLane="27_4way_41to3way_40_0" arrivalPos="85.60" arrivalSpeed="10.46" duration="30.00" routeLength="280.50" waitingTime="0.00" waitingCount="0" stopTime="0.00" timeLoss="3.90" rerouteNo="0" devices="tripinfo_44" vType="DEFAULT_VEHTYPE" speedFactor="0.78" vaporized=""/>
    <tripinfo id="162" depart="27.00" departLane="98_4way_51to4way_43_0" departPos="5.10" departSpeed="0.00" departDelay="1.70" arrival="37.00" arrivalLane="98_4way_51to4way_43_0" arrivalPos="85.60" arrivalSpeed="12.28" duration="10.00" routeLength="80.50" waitingTime="0.00" waitingCount="0" stopTime="0.00" timeLoss="3.27" rerouteNo="0" devices="tripinfo_162" vType="DEFAULT_VEHTYPE" speedFactor="0.96" vaporized=""/>
    <tripinfo id="167" depart="27.00" departLane="39_3way_58to4way_50_0" departPos="5.10" departSpeed="0.00" departDelay="0.91" arrival="37.00" arrivalLane="39_3way_58to4way_50_0" arrivalPos="85.60" arrivalSpeed="11.45" duration="10.00" routeLength="80.50" waitingTime="0.00" waitingCount="0" stopTime="0.00" timeLoss="2.91" rerouteNo="0" devices="tripinfo_167" vType="DEFAULT_VEHTYPE" speedFactor="0.85" vaporized=""/>
    <tripinfo id="99" depart="16.00" departLane="105_4way_51to4way_50_0" departPos="5.10" departSpeed="0.00" departDelay="0.54" arrival="41.00" arrivalLane="31_4way_49to3way_48_0" arrivalPos="85.60" arrivalSpeed="13.46" duration="25.00" routeLength="280.50" waitingTime="0.00" waitingCount="0" stopTime="0.00" timeLoss="4.14" rerouteNo="0" devices="tripinfo_99" vType="DEFAULT_VEHTYPE" speedFactor="0.97" vaporized=""/>
    <tripinfo id="60" depart="11.00" departLane="76_4way_27to4way_35_0" departPos="5.10" departSpeed="0.00" departDelay="1.63" arrival="42.00" arrivalLane="90_4way_37to4way_38_0" arrivalPos="85.60" arrivalSpeed="14.41" duration="31.00" routeLength="375.13" waitingTime="0.00" waitingCount="0" stopTime="0.00" timeLoss="6.32" rerouteNo="0" devices="tripinfo_60" vType="DEFAULT_VEHTYPE" speedFactor="1.12" vaporized=""/>
    <tripinfo id="207" depart="33.00" departLane="103_4way_54to4way_46_0" departPos="5.10" departSpeed="0.00" departDelay="0.67" arrival="42.00" arrivalLane="103_4way_54to4way_46_0" arrivalPos="85.60" arrivalSpeed="16.26" duration="9.00" routeLength="80.50" waitingTime="0.00" waitingCount="0" stopTime="0.00" timeLoss="4.26" rerouteNo="0" devices="tripinfo_207" vType="DEFAULT_VEHTYPE" speedFactor="1.24" vaporized=""/>
    <tripinfo id="110" depart="18.00" departLane="106_4way_52to4way_51_0" departPos="5.10" departSpeed="0.00" departDelay="0.82" arrival="43.00" arrivalLane="39_4way_50to3way_58_0" arrivalPos="85.60" arrivalSpeed="14.48" duration="25.00" routeLength="275.13" waitingTime="0.00" waitingCount="0" stopTime="0.00" timeLoss="5.36" rerouteNo="0" devices="tripinfo_110" vType="DEFAULT_VEHTYPE" speedFactor="1.05" vaporized=""/>
    <tripinfo id="39" depart="7.00" departLane="48_4way_9to3way_8_0" departPos="5.10" departSpeed="0.00" departDelay="0.91" arrival="47.00" arrivalLane="20_3way_32to3way_40_0" arrivalPos="85.60" arrivalSpeed="14.23" duration="40.00" routeLength="475.13" waitingTime="0.00" waitingCount="0" stopTime="0.00" timeLoss="5.98" rerouteNo="0" devices="tripinfo_39" vType="DEFAULT_VEHTYPE" speedFactor="1.05" vaporized=""/>
    <tripinfo id="242" depart="38.00" departLane="39_4way_50to3way_58_0" departPos="5.10" departSpeed="0.00" departDelay="0.20" arrival="47.00" arrivalLane="39_4way_50to3way_58_0" arrivalPos="85.60" arrivalSpeed="12.71" duration="9.00" routeLength="80.50" waitingTime="0.00" waitingCount="0" stopTime="0.00" timeLoss="2.87" rerouteNo="0" devices="tripinfo_242" vType="DEFAULT_VEHTYPE" speedFactor="0.98" vaporized=""/>
    <tripinfo id="179" depart="29.00" departLane="82_4way_33to4way_34_0" departPos="5.10" departSpeed="0.00" departDelay="1.04" arrival="49.00" arrivalLane="74_4way_34to4way_26_0" arrivalPos="85.60" arrivalSpeed="12.90" duration="20.00" routeLength="175.13" waitingTime="0.00" waitingCount="0" stopTime="0.00" timeLoss="5.05" rerouteNo="0" devices="tripinfo_179" vType="DEFAULT_VEHTYPE" speedFactor="0.97" vaporized=""/>
    <tripinfo id="184" depart="29.00" departLane="76_4way_27to4way_35_0" departPos="5.10" departSpeed="0.00" departDelay="0.26" arrival="49.00" arrivalLane="86_4way_35to4way_36_0" arrivalPos="85.60" arrivalSpeed="13.19" duration="20.00" routeLength="175.13" waitingTime="0.00" waitingCount="0" stopTime="0.00" timeLoss="6.32" rerouteNo="0" devices="tripinfo_184" vType="DEFAULT_VEHTYPE" speedFactor="1.02" vaporized=""/>
    <tripinfo id="190" depart="32.00" departLane="56_4way_14to4way_13_0" departPos="5.10" departSpeed="0.00" departDelay="2.32" arrival="51.00" arrivalLane="57_4way_13to4way_21_0" arrivalPos="85.60" arrivalSpeed="14.13" duration="19.00" routeLength="175.13" waitingTime="0.00" waitingCount="0" stopTime="0.00" timeLoss="5.75" rerouteNo="0" devices="tripinfo_190" vType="DEFAULT_VEHTYPE" speedFactor="1.08" vaporized=""/>
    <tripinfo id="157" depart="25.00" departLane="74_4way_34to4way_26_0" departPos="5.10" departSpeed="0.00" departDelay="0.48" arrival="53.00" arrivalLane="59_4way_18to4way_17_0" arrivalPos="85.60" arrivalSpeed="12.51" duration="28.00" routeLength="275.13" waitingTime="0.00" waitingCount="0" stopTime="0.00" timeLoss="5.29" rerouteNo="0" devices="tripinfo_157" vType="DEFAULT_VEHTYPE" speedFactor="0.94" vaporized=""/>
    <tripinfo id="107" depart="20.00" departLane="8_3way_8to3way_16_0" departPos="5.10" departSpeed="0.00" departDelay="3.29" arrival="56.00" arrivalLane="20_3way_32to3way_40_0" arrivalPos="85.60" arrivalSpeed="13.85" duration="36.00" routeLength="380.50" waitingTime="0.00" waitingCount="0" stopTime="0.00" timeLoss="10.32" rerouteNo="0" devices="tripinfo_107" vType="DEFAULT_VEHTYPE" speedFactor="1.10" vaporized=""/>
    <tripinfo id="164" depart="26.00" departLane="107_4way_52to4way_53_0" departPos="5.10" departSpeed="0.00" departDelay="0.38" arrival="57.00" arrivalLane="28_3way_55to3way_47_0" arrivalPos="85.60" arrivalSpeed="14.99" duration="31.00" routeLength="375.13" waitingTime="0.00" waitingCount="0" stopTime="0.00" timeLoss="5.70" rerouteNo="0" devices="tripinfo_164" vType="DEFAULT_VEHTYPE" speedFactor="1.11" vaporized=""/>
    <tripinfo id="137" depart="22.00" departLane="107_4way_52to4way_53_0" departPos="5.10" departSpeed="0.00" departDelay="0.60" arrival="59.00" arrivalLane="81_4way_38to4way_30_0" arrivalPos="85.60" arrivalSpeed="15.25" duration="37.00" routeLength="475.13" waitingTime="0.00" waitingCount="0" stopTime="0.00" timeLoss="5.85" rerouteNo="0" devices="tripinfo_137" vType="DEFAULT_VEHTYPE" speedFactor="1.14" vaporized=""/>
    <tripinfo id="313" depart="49.00" departLane="59_4way_18to4way_17_0" departPos="5.10" departSpeed="0.00" departDelay="0.11" arrival="59.00" arrivalLane="59_4way_18to4way_17_0" arrivalPos="85.60" arrivalSpeed="11.41" duration="10.00" routeLength="80.50" waitingTime="0.00" waitingCount="0" stopTime="0.00" timeLoss="2.82" rerouteNo="0" devices="tripinfo_313" vType="DEFAULT_VEHTYPE" speedFactor="0.90" vaporized=""/>
    <tripinfo id="265" depart="42.00" departLane="98_4way_51to4way_43_0" departPos="5.10" departSpeed="0.00" departDelay="0.61" arrival="62.00" arrivalLane="95_4way_43to4way_42_0" arrivalPos="85.60" arrivalSpeed="12.81" duration="20.00" routeLength="175.13" waitingTime="0.00" waitingCount="0" stopTime="0.00" timeLoss="5.45" rerouteNo="0" devices="tripinfo_265" vType="DEFAULT_VEHTYPE" speedFactor="0.99" vaporized=""/>
    <tripinfo id="302" depart="53.00" departLane="21_3way_32to4way_33_0" departPos="5.10" departSpeed="0.00" departDelay="5.83" arrival="63.00" arrivalLane="21_3way_32to4way_33_0" arrivalPos="85.60" arrivalSpeed="11.18" duration="10.00" routeLength="80.50" waitingTime="0.00" waitingCount="0" stopTime="0.00" timeLoss="2.95" rerouteNo="0" devices="tripinfo_302" vType="DEFAULT_VEHTYPE" speedFactor="0.83" vaporized=""/>
    <tripinfo id="183" depart="29.00" departLane="26_3way_40to3way_48_0" departPos="5.10" departSpeed="0.00" departDelay="0.41" arrival="65.00" arrivalLane="105_4way_50to4way_51_0" arrivalPos="85.60" arrivalSpeed="12.97" duration="36.00" routeLength="375.13" waitingTime="0.00" waitingCount="0" stopTime="0.00" timeLoss="6.68" rerouteNo="0" devices="tripinfo_183" vType="DEFAULT_VEHTYPE" speedFactor="0.96" vaporized=""/>
    <tripinfo id="273" depart="46.00" departLane="59_4way_18to4way_17_0" departPos="5.10" departSpeed="0.00" departDelay="3.36" arrival="65.00" arrivalLane="60_4way_17to4way_25_0" arrivalPos="85.60" arrivalSpeed="14.15" duration="19.00" routeLength="175.13" waitingTime="0.00" waitingCount="0" stopTime="0.00" timeLoss="5.75" rerouteNo="0" devices="tripinfo_273" vType="DEFAULT_VEHTYPE" speedFactor="1.04" vaporized=""/>
    <tripinfo id="289" depart="46.00" departLane="44_3way_60to4way_52_0" departPos="5.10" departSpeed="0.00" departDelay="0.86" arrival="65.00" arrivalLane="106_4way_52to4way_51_0" arrivalPos="85.60" arrivalSpeed="13.46" duration="19.00" routeLength="175.13" waitingTime="0.00" waitingCount="0" stopTime="0.00" timeLoss="5.97" rerouteNo="0" devices="tripinfo_289" vType="DEFAULT_VEHTYPE" speedFactor="1.03" vaporized=""/>
    <tripinfo id="355" depart="56.00" departLane="59_4way_18to4way_17_0" departPos="5.10" departSpeed="0.00" departDelay="0.55" arrival="66.00" arrivalLane="59_4way_18to4way_17_0" arrivalPos="85.60" arrivalSpeed="13.65" duration="10.00" routeLength="80.50" waitingTime="0.00" waitingCount="0" stopTime="0.00" timeLoss="3.27" rerouteNo="0" devices="tripinfo_355" vType="DEFAULT_VEHTYPE" speedFactor="1.00" vaporized=""/>
    <tripinfo id="309" depart="49.00" departLane="108_4way_53to4way_54_0" departPos="5.10" departSpeed="0.00" departDelay="0.73" arrival="67.00" arrivalLane="103_4way_54to4way_46_0" arrivalPos="85.60" arrivalSpeed="15.49" duration="18.00" routeLength="175.13" waitingTime="0.00" waitingCount="0" stopTime="0.00" timeLoss="5.46" rerouteNo="0" devices="tripinfo_309" vType="DEFAULT_VEHTYPE" speedFactor="1.12" vaporized=""/>
    <tripinfo id="322" depart="51.00" departLane="93_4way_42to4way_41_0" departPos="5.10" departSpeed="0.00" departDelay="0.70" arrival="69.00" arrivalLane="94_4way_41to4way_49_0" arrivalPos="85.60" arrivalSpeed="14.52" duration="18.00" routeLength="175.13" waitingTime="0.00" waitingCount="0" stopTime="0.00" timeLoss="5.30" rerouteNo="0" devices="tripinfo_322" vType="DEFAULT_VEHTYPE" speedFactor="1.08" vaporized=""/>
    <tripinfo id="52" depart="11.00" departLane="96_4way_42to4way_50_0" departPos="5.10" departSpeed="0.00" departDelay="2.88" arrival="70.00" arrivalLane="96_4way_42to4way_50_0" arrivalPos="85.60" arrivalSpeed="4.93" duration="59.00" routeLength="80.50" waitingTime="44.00" waitingCount="1" stopTime="0.00" timeLoss="53.37" rerouteNo="0" devices="tripinfo_52" vType="DEFAULT_VEHTYPE" speedFactor="1.03" vaporized=""/>
    <tripinfo id="214" depart="34.00" departLane="59_4way_17to4way_18_0" departPos="5.10" departSpeed="0.00" departDelay="0.57" arrival="70.00" arrivalLane="59_4way_17to4way_18_0" arrivalPos="85.60" arrivalSpeed="6.17" duration="36.00" routeLength="80.50" waitingTime="23.00" waitingCount="1" stopTime="0.00" timeLoss="29.93" rerouteNo="0" devices="tripinfo_214" vType="DEFAULT_VEHTYPE" speedFactor="1.00" vaporized=""/>
    <tripinfo id="221" depart="35.00" departLane="58_4way_14to4way_22_0" departPos="5.10" departSpeed="0.00" departDelay="0.48" arrival="70.00" arrivalLane="92_4way_38to4way_46_0" arrivalPos="85.60" arrivalSpeed="11.49" duration="35.00" routeLength="380.50" waitingTime="0.00" waitingCount="0" stopTime="0.00" timeLoss="3.76" rerouteNo="0" devices="tripinfo_221" vType="DEFAULT_VEHTYPE" speedFactor="0.90" vaporized=""/>
    <tripinfo id="329" depart="52.00" departLane="48_3way_8to4way_9_0" departPos="5.10" departSpeed="0.00" departDelay="0.61" arrival="70.00" arrivalLane="48_3way_8to4way_9_0" arrivalPos="85.60" arrivalSpeed="5.13" duration="18.00" routeLength="80.50" waitingTime="4.00" waitingCount="1" stopTime="0.00" timeLoss="12.46" rerouteNo="0" devices="tripinfo_329" vType="DEFAULT_VEHTYPE" speedFactor="1.07" vaporized=""/>
    <tripinfo id="104" depart="17.00" departLane="45_3way_61to3way_62_0" departPos="5.10" departSpeed="0.00" departDelay="0.75" arrival="71.00" arrivalLane="47_3way_62to4way_54_0" arrivalPos="85.60" arrivalSpeed="7.02" duration="54.00" routeLength="175.13" waitingTime="29.00" waitingCount="1" stopTime="0.00" timeLoss="39.29" rerouteNo="0" devices="tripinfo_104" vType="DEFAULT_VEHTYPE" speedFactor="0.95" vaporized=""/>
    <tripinfo id="131" depart="21.00" departLane="100_4way_52to4way_44_0" departPos="5.10" departSpeed="0.00" departDelay="0.54" arrival="71.00" arrivalLane="97_4way_44to4way_43_0" arrivalPos="85.60" arrivalSpeed="6.08" duration="50.00" routeLength="175.13" waitingTime="22.00" waitingCount="1" stopTime="0.00" timeLoss="33.19" rerouteNo="0" devices="tripinfo_131" vType="DEFAULT_VEHTYPE" speedFactor="0.82" vaporized=""/>
    <tripinfo id="388" depart="61.00" departLane="69_4way_21to4way_29_0" departPos="5.10" departSpeed="0.00" departDelay="0.39" arrival="71.00" arrivalLane="69_4way_21to4way_29_0" arrivalPos="85.60" arrivalSpeed="12.88" duration="10.00" routeLength="80.50" waitingTime="0.00" waitingCount="0" stopTime="0.00" timeLoss="3.25" rerouteNo="0" devices="tripinfo_388" vType="DEFAULT_VEHTYPE" speedFactor="0.95" vaporized=""/>
    <tripinfo id="315" depart="50.00" departLane="4_3way_15to3way_23_0" departPos="5.10" departSpeed="0.00" departDelay="0.80" arrival="73.00" arrivalLane="4_3way_15to3way_23_0" arrivalPos="85.60" arrivalSpeed="8.13" duration="23.00" routeLength="80.50" waitingTime="8.00" waitingCount="1" stopTime="0.00" timeLoss="16.34" rerouteNo="0" devices="tripinfo_315" vType="DEFAULT_VEHTYPE" speedFactor="0.93" vaporized=""/>
    <tripinfo id="399" depart="63.00" departLane="54_4way_12to4way_13_0" departPos="5.10" departSpeed="0.00" departDelay="0.68" arrival="73.00" arrivalLane="54_4way_12to4way_13_0" arrivalPos="85.60" arrivalSpeed="13.02" duration="10.00" routeLength="80.50" waitingTime="0.00" waitingCount="0" stopTime="0.00" timeLoss="3.36" rerouteNo="0" devices="tripinfo_399" vType="DEFAULT_VEHTYPE" speedFactor="0.99" vaporized=""/>
    <tripinfo id="247" depart="39.00" departLane="7_3way_16to3way_24_0" departPos="5.10" departSpeed="0.00" departDelay="0.42" arrival="74.00" arrivalLane="26_3way_40to3way_48_0" arrivalPos="85.60" arrivalSpeed="12.43" duration="35.00" routeLength="380.50" waitingTime="0.00" waitingCount="0" stopTime="0.00" timeLoss="9.21" rerouteNo="0" devices="tripinfo_247" vType="DEFAULT_VEHTYPE" speedFactor="1.07" vaporized=""/>
    <tripinfo id="155" depart="25.00" departLane="32_3way_6to3way_5_0" departPos="5.10" departSpeed="0.00" departDelay="0.79" arrival="75.00" arrivalLane="32_3way_6to3way_5_0" arrivalPos="85.60" arrivalSpeed="9.39" duration="50.00" routeLength="80.50" waitingTime="34.00" waitingCount="1" stopTime="0.00" timeLoss="43.36" rerouteNo="0" devices="tripinfo_155" vType="DEFAULT_VEHTYPE" speedFactor="0.94" vaporized=""/>
    <tripinfo id="156" depart="25.00" departLane="44_3way_60to4way_52_0" departPos="5.10" departSpeed="0.00" departDelay="0.63" arrival="75.00" arrivalLane="97_4way_44to4way_43_0" arrivalPos="85.60" arrivalSpeed="8.89" duration="50.00" routeLength="275.13" waitingTime="16.00" waitingCount="1" stopTime="0.00" timeLoss="27.55" rerouteNo="0" devices="tripinfo_156" vType="DEFAULT_VEHTYPE" speedFactor="0.91" vaporized=""/>
    <tripinfo id="204" depart="35.00" departLane="40_3way_59to3way_60_0" departPos="5.10" departSpeed="0.00" departDelay="3.13" arrival="75.00" arrivalLane="43_3way_60to3way_61_0" arrivalPos="85.60" arrivalSpeed="6.95" duration="40.00" routeLength="180.50" waitingTime="16.00" waitingCount="1" stopTime="0.00" timeLoss="28.27" rerouteNo="0" devices="tripinfo_204" vType="DEFAULT_VEHTYPE" speedFactor="1.12" vaporized=""/>
    <tripinfo id="320" depart="50.00" departLane="87_4way_35to4way_43_0" departPos="5.10" departSpeed="0.00" departDelay="0.02" arrival="75.00" arrivalLane="98_4way_43to4way_51_0" arrivalPos="85.60" arrivalSpeed="8.60" duration="25.00" routeLength="180.50" waitingTime="1.00" waitingCount="1" stopTime="0.00" timeLoss="10.10" rerouteNo="0" devices="tripinfo_320" vType="DEFAULT_VEHTYPE" speedFactor="0.88" vaporized=""/>
    <tripinfo id="25" depart="4.00" departLane="6_3way_15to4way_14_0" departPos="5.10" departSpeed="0.00" departDelay="0.09" arrival="76.00" arrivalLane="103_4way_46to4way_54_0" arrivalPos="85.60" arrivalSpeed="8.48" duration="72.00" routeLength="575.13" waitingTime="14.00" waitingCount="1" stopTime="0.00" timeLoss="27.27" rerouteNo="0" devices="tripinfo_25" vType="DEFAULT_VEHTYPE" speedFactor="0.95" vaporized=""/>
    <tripinfo id="53" depart="9.00" departLane="90_4way_38to4way_37_0" departPos="5.10" departSpeed="0.00" departDelay="0.72" arrival="76.00" arrivalLane="46_4way_53to3way_61_0" arrivalPos="85.60" arrivalSpeed="16.90" duration="67.00" routeLength="375.13" waitingTime="32.00" waitingCount="1" stopTime="0.00" timeLoss="45.05" rerouteNo="0" devices="tripinfo_53" vType="DEFAULT_VEHTYPE" speedFactor="1.27" vaporized=""/>
    <tripinfo id="86" depart="14.00" departLane="46_3way_61to4way_53_0" departPos="5.10" departSpeed="0.00" departDelay="0.57" arrival="76.00" arrivalLane="107_4way_53to4way_52_0" arrivalPos="85.60" arrivalSpeed="14.24" duration="62.00" routeLength="175.13" waitingTime="40.00" waitingCount="1" stopTime="0.00" timeLoss="49.14" rerouteNo="0" devices="tripinfo_86" vType="DEFAULT_VEHTYPE" speedFactor="1.06" vaporized=""/>
    <tripinfo id="305" depart="48.00" departLane="84_4way_35to4way_34_0" departPos="5.10" departSpeed="0.00" departDelay="0.36" arrival="76.00" arrivalLane="96_4way_42to4way_50_0" arrivalPos="85.60" arrivalSpeed="12.00" duration="28.00" routeLength="275.13" waitingTime="0.00" waitingCount="0" stopTime="0.00" timeLoss="6.00" rerouteNo="0" devices="tripinfo_305" vType="DEFAULT_VEHTYPE" speedFactor="0.93" vaporized=""/>
    <tripinfo id="117" depart="19.00" departLane="72_4way_33to4way_25_0" departPos="5.10" departSpeed="0.00" departDelay="0.72" arrival="77.00" arrivalLane="9_4way_17to3way_16_0" arrivalPos="85.60" arrivalSpeed="12.17" duration="58.00" routeLength="275.13" waitingTime="27.00" waitingCount="1" stopTime="0.00" timeLoss="35.19" rerouteNo="0" devices="tripinfo_117" vType="DEFAULT_VEHTYPE" speedFactor="0.91" vaporized=""/>
    <tripinfo id="216" depart="35.00" departLane="51_4way_9to4way_10_0" departPos="5.10" departSpeed="0.00" departDelay="1.26" arrival="77.00" arrivalLane="52_4way_11to4way_12_0" arrivalPos="85.60" arrivalSpeed="13.95" duration="42.00" routeLength="280.50" waitingTime="14.00" waitingCount="1" stopTime="0.00" timeLoss="22.72" rerouteNo="0" devices="tripinfo_216" vType="DEFAULT_VEHTYPE" speedFactor="1.10" vaporized=""/>
    <tripinfo id="317" depart="50.00" departLane="79_4way_30to4way_29_0" departPos="5.10" departSpeed="0.00" departDelay="0.48" arrival="77.00" arrivalLane="79_4way_30to4way_29_0" arrivalPos="85.60" arrivalSpeed="11.16" duration="27.00" routeLength="80.50" waitingTime="10.00" waitingCount="1" stopTime="0.00" timeLoss="21.23" rerouteNo="0" devices="tripinfo_317" vType="DEFAULT_VEHTYPE" speedFactor="1.11" vaporized=""/>
    <tripinfo id="16" depart="3.00" departLane="85_4way_42to4way_34_0" departPos="5.10" departSpeed="0.00" departDelay="0.50" arrival="78.00" arrivalLane="82_4way_34to4way_33_0" arrivalPos="85.60" arrivalSpeed="11.60" duration="75.00" routeLength="175.13" waitingTime="51.00" waitingCount="1" stopTime="0.00" timeLoss="59.60" rerouteNo="0" devices="tripinfo_16" vType="DEFAULT_VEHTYPE" speedFactor="0.90" vaporized=""/>
    <tripinfo id="152" depart="26.00" departLane="25_3way_4to4way_12_0" departPos="5.10" departSpeed="0.00" departDelay="2.26" arrival="78.00" arrivalLane="13_4way_22to3way_23_0" arrivalPos="85.60" arrivalSpeed="11.33" duration="52.00" routeLength="475.13" waitingTime="1.00" waitingCount="1" stopTime="0.00" timeLoss="12.18" rerouteNo="0" devices="tripinfo_152" vType="DEFAULT_VEHTYPE" speedFactor="0.89" vaporized=""/>
    <tripinfo id="1" depart="1.00" departLane="73_4way_26to4way_27_0" departPos="5.10" departSpeed="0.00" departDelay="0.84" arrival="79.00" arrivalLane="53_4way_19to4way_11_0" arrivalPos="85.60" arrivalSpeed="13.59" duration="78.00" routeLength="275.13" waitingTime="47.00" waitingCount="1" stopTime="0.00" timeLoss="57.93" rerouteNo="0" devices="tripinfo_1" vType="DEFAULT_VEHTYPE" speedFactor="1.04" vaporized=""/>