<?xml version="1.0" encoding="UTF-8"?>

<!-- generated on 2023-07-30 23:17:32 by Eclipse SUMO sumo Version 1.12.0
<configuration xmlns:xsi="http://www.w3.org/2001/XMLSchema-instance" xsi:noNamespaceSchemaLocation="http://sumo.dlr.de/xsd/sumoConfiguration.xsd">

    <input>
        <net-file value="../../data_generation/sq.net.xml"/>
        <route-files value="../../data_generation/sq.rou.xml"/>
    </input>

    <output>
        <tripinfo-output value="tripinfo.xml"/>
        <statistic-output value="statistic.xml"/>
    </output>

    <time>
        <begin value="0"/>
        <end value="3600"/>
    </time>

    <processing>
        <time-to-teleport value="-1"/>
    </processing>

    <traci_server>
        <remote-port value="53483"/>
    </traci_server>

    <random_number>
        <seed value="1395"/>
    </random_number>

    <gui_only>
        <gui-settings-file value="../../data_generation/view_HY_0402.xml"/>
    </gui_only>

</configuration>
-->

<tripinfos xmlns:xsi="http://www.w3.org/2001/XMLSchema-instance" xsi:noNamespaceSchemaLocation="http://sumo.dlr.de/xsd/tripinfo_file.xsd">
    <tripinfo id="1" depart="1.00" departLane="373_4way_66to4way_67_0" departPos="5.10" departSpeed="0.00" departDelay="0.85" arrival="10.00" arrivalLane="373_4way_66to4way_67_0" arrivalPos="85.60" arrivalSpeed="13.60" duration="9.00" routeLength="80.50" waitingTime="0.00" waitingCount="0" stopTime="0.00" timeLoss="3.33" rerouteNo="0" devices="tripinfo_1" vType="DEFAULT_VEHTYPE" speedFactor="1.04" vaporized=""/>
    <tripinfo id="22" depart="4.00" departLane="403_4way_98to4way_83_0" departPos="5.10" departSpeed="0.00" departDelay="0.74" arrival="13.00" arrivalLane="403_4way_98to4way_83_0" arrivalPos="85.60" arrivalSpeed="13.26" duration="9.00" routeLength="80.50" waitingTime="0.00" waitingCount="0" stopTime="0.00" timeLoss="2.91" rerouteNo="0" devices="tripinfo_22" vType="DEFAULT_VEHTYPE" speedFactor="1.00" vaporized=""/>
    <tripinfo id="47" depart="7.00" departLane="40_3way_180to4way_181_0" departPos="5.10" departSpeed="0.00" departDelay="0.04" arrival="17.00" arrivalLane="40_3way_180to4way_181_0" arrivalPos="85.60" arrivalSpeed="11.62" duration="10.00" routeLength="80.50" waitingTime="0.00" waitingCount="0" stopTime="0.00" timeLoss="3.03" rerouteNo="0" devices="tripinfo_47" vType="DEFAULT_VEHTYPE" speedFactor="0.90" vaporized=""/>
    <tripinfo id="115" depart="18.00" departLane="99_3way_75to4way_76_0" departPos="5.10" departSpeed="0.00" departDelay="0.97" arrival="28.00" arrivalLane="99_3way_75to4way_76_0" arrivalPos="85.60" arrivalSpeed="12.44" duration="10.00" routeLength="80.50" waitingTime="0.00" waitingCount="0" stopTime="0.00" timeLoss="2.96" rerouteNo="0" devices="tripinfo_115" vType="DEFAULT_VEHTYPE" speedFactor="0.92" vaporized=""/>
    <tripinfo id="82" depart="13.00" departLane="171_4way_131to4way_132_0" departPos="5.10" departSpeed="0.00" departDelay="0.86" arrival="30.00" arrivalLane="173_4way_132to4way_133_0" arrivalPos="85.60" arrivalSpeed="12.60" duration="17.00" routeLength="180.50" waitingTime="0.00" waitingCount="0" stopTime="0.00" timeLoss="3.33" rerouteNo="0" devices="tripinfo_82" vType="DEFAULT_VEHTYPE" speedFactor="0.99" vaporized=""/>
    <tripinfo id="24" depart="4.00" departLane="340_4way_48to4way_47_0" departPos="5.10" departSpeed="0.00" departDelay="0.45" arrival="31.00" arrivalLane="366_4way_62to4way_77_0" arrivalPos="85.60" arrivalSpeed="12.54" duration="27.00" routeLength="275.13" waitingTime="0.00" waitingCount="0" stopTime="0.00" timeLoss="5.65" rerouteNo="0" devices="tripinfo_24" vType="DEFAULT_VEHTYPE" speedFactor="0.97" vaporized=""/>
    <tripinfo id="7" depart="2.00" departLane="7_3way_119to3way_104_0" departPos="5.10" departSpeed="0.00" departDelay="0.96" arrival="36.00" arrivalLane="88_3way_74to3way_59_0" arrivalPos="85.60" arrivalSpeed="12.77" duration="34.00" routeLength="380.50" waitingTime="0.00" waitingCount="0" stopTime="0.00" timeLoss="4.39" rerouteNo="0" devices="tripinfo_7" vType="DEFAULT_VEHTYPE" speedFactor="0.95" vaporized=""/>
    <tripinfo id="108" depart="16.00" departLane="125_4way_108to4way_93_0" departPos="5.10" departSpeed="0.00" departDelay="0.00" arrival="37.00" arrivalLane="410_4way_93to4way_92_0" arrivalPos="85.60" arrivalSpeed="11.27" duration="21.00" routeLength="175.13" waitingTime="0.00" waitingCount="0" stopTime="0.00" timeLoss="5.75" rerouteNo="0" devices="tripinfo_108" vType="DEFAULT_VEHTYPE" speedFactor="0.88" vaporized=""/>
    <tripinfo id="206" depart="31.00" departLane="93_4way_61to3way_60_0" departPos="5.10" departSpeed="0.00" departDelay="0.49" arrival="41.00" arrivalLane="93_4way_61to3way_60_0" arrivalPos="85.60" arrivalSpeed="12.00" duration="10.00" routeLength="80.50" waitingTime="0.00" waitingCount="0" stopTime="0.00" timeLoss="2.82" rerouteNo="0" devices="tripinfo_206" vType="DEFAULT_VEHTYPE" speedFactor="0.92" vaporized=""/>
    <tripinfo id="156" depart="24.00" departLane="7_3way_119to3way_104_0" departPos="5.10" departSpeed="0.00" departDelay="0.90" arrival="42.00" arrivalLane="8_3way_104to3way_89_0" arrivalPos="85.60" arrivalSpeed="11.83" duration="18.00" routeLength="180.50" waitingTime="0.00" waitingCount="0" stopTime="0.00" timeLoss="3.73" rerouteNo="0" devices="tripinfo_156" vType="DEFAULT_VEHTYPE" speedFactor="0.91" vaporized=""/>
    <tripinfo id="210" depart="32.00" departLane="54_3way_213to4way_198_0" departPos="5.10" departSpeed="0.00" departDelay="0.90" arrival="42.00" arrivalLane="54_3way_213to4way_198_0" arrivalPos="85.60" arrivalSpeed="15.72" duration="10.00" routeLength="80.50" waitingTime="0.00" waitingCount="0" stopTime="0.00" timeLoss="4.22" rerouteNo="0" devices="tripinfo_210" vType="DEFAULT_VEHTYPE" speedFactor="1.20" vaporized=""/>
    <tripinfo id="78" depart="12.00" departLane="187_4way_141to4way_156_0" departPos="5.10" departSpeed="0.00" departDelay="0.45" arrival="52.00" arrivalLane="217_4way_159to4way_160_0" arrivalPos="85.60" arrivalSpeed="13.62" duration="40.00" routeLength="475.13" waitingTime="0.00" waitingCount="0" stopTime="0.00" timeLoss="5.77" rerouteNo="0" devices="tripinfo_78" vType="DEFAULT_VEHTYPE" speedFactor="1.03" vaporized=""/>
    <tripinfo id="331" depart="50.00" departLane="233_4way_168to4way_183_0" departPos="5.10" departSpeed="0.00" departDelay="0.98" arrival="60.00" arrivalLane="233_4way_168to4way_183_0" arrivalPos="85.60" arrivalSpeed="11.80" duration="10.00" routeLength="80.50" waitingTime="0.00" waitingCount="0" stopTime="0.00" timeLoss="3.14" rerouteNo="0" devices="tripinfo_331" vType="DEFAULT_VEHTYPE" speedFactor="0.94" vaporized=""/>
    <tripinfo id="204" depart="31.00" departLane="345_4way_64to4way_49_0" departPos="5.10" departSpeed="0.00" departDelay="0.79" arrival="61.00" arrivalLane="81_4way_19to3way_4_0" arrivalPos="85.60" arrivalSpeed="15.40" duration="30.00" routeLength="380.50" waitingTime="0.00" waitingCount="0" stopTime="0.00" timeLoss="4.92" rerouteNo="0" devices="tripinfo_204" vType="DEFAULT_VEHTYPE" speedFactor="1.12" vaporized=""/>
    <tripinfo id="350" depart="52.00" departLane="8_3way_104to3way_89_0" departPos="5.10" departSpeed="0.00" departDelay="0.16" arrival="61.00" arrivalLane="8_3way_104to3way_89_0" arrivalPos="85.60" arrivalSpeed="13.79" duration="9.00" routeLength="80.50" waitingTime="0.00" waitingCount="0" stopTime="0.00" timeLoss="2.90" rerouteNo="0" devices="tripinfo_350" vType="DEFAULT_VEHTYPE" speedFactor="1.07" vaporized=""/>
    <tripinfo id="317" depart="47.00" departLane="37_3way_179to3way_194_0" departPos="5.10" departSpeed="0.00" departDelay="0.05" arrival="63.00" arrivalLane="41_3way_194to3way_209_0" arrivalPos="85.60" arrivalSpeed="14.62" duration="16.00" routeLength="180.50" waitingTime="0.00" waitingCount="0" stopTime="0.00" timeLoss="3.97" rerouteNo="0" devices="tripinfo_317" vType="DEFAULT_VEHTYPE" speedFactor="1.11" vaporized=""/>
    <tripinfo id="18" depart="6.00" departLane="137_4way_112to4way_97_0" departPos="5.10" departSpeed="0.00" departDelay="3.33" arrival="70.00" arrivalLane="137_4way_112to4way_97_0" arrivalPos="85.60" arrivalSpeed="4.97" duration="64.00" routeLength="80.50" waitingTime="49.00" waitingCount="1" stopTime="0.00" timeLoss="57.87" rerouteNo="0" devices="tripinfo_18" vType="DEFAULT_VEHTYPE" speedFactor="0.96" vaporized=""/>
    <tripinfo id="249" depart="37.00" departLane="368_4way_78to4way_63_0" departPos="5.10" departSpeed="0.00" departDelay="0.12" arrival="70.00" arrivalLane="365_4way_63to4way_62_0" arrivalPos="85.60" arrivalSpeed="5.11" duration="33.00" routeLength="175.13" waitingTime="9.00" waitingCount="1" stopTime="0.00" timeLoss="21.20" rerouteNo="0" devices="tripinfo_249" vType="DEFAULT_VEHTYPE" speedFactor="1.12" vaporized=""/>
    <tripinfo id="255" depart="38.00" departLane="165_4way_128to4way_129_0" departPos="5.10" departSpeed="0.00" departDelay="0.23" arrival="71.00" arrivalLane="165_4way_128to4way_129_0" arrivalPos="85.60" arrivalSpeed="6.27" duration="33.00" routeLength="80.50" waitingTime="17.00" waitingCount="1" stopTime="0.00" timeLoss="24.87" rerouteNo="0" devices="tripinfo_255" vType="DEFAULT_VEHTYPE" speedFactor="0.76" vaporized=""/>
    <tripinfo id="167" depart="31.00" departLane="357_4way_55to4way_70_0" departPos="5.10" departSpeed="0.00" departDelay="6.27" arrival="73.00" arrivalLane="357_4way_55to4way_70_0" arrivalPos="85.60" arrivalSpeed="7.65" duration="42.00" routeLength="80.50" waitingTime="26.00" waitingCount="1" stopTime="0.00" timeLoss="34.74" rerouteNo="0" devices="tripinfo_167" vType="DEFAULT_VEHTYPE" speedFactor="0.85" vaporized=""/>
    <tripinfo id="430" depart="64.00" departLane="228_4way_167to4way_166_0" departPos="5.10" departSpeed="0.00" departDelay="0.32" arrival="74.00" arrivalLane="228_4way_167to4way_166_0" arrivalPos="85.60" arrivalSpeed="11.28" duration="10.00" routeLength="80.50" waitingTime="0.00" waitingCount="0" stopTime="0.00" timeLoss="2.86" rerouteNo="0" devices="tripinfo_430" vType="DEFAULT_VEHTYPE" speedFactor="0.90" vaporized=""/>
    <tripinfo id="127" depart="19.00" departLane="8_3way_104to3way_89_0" departPos="5.10" departSpeed="0.00" departDelay="0.19" arrival="76.00" arrivalLane="408_4way_88to4way_87_0" arrivalPos="85.60" arrivalSpeed="9.89" duration="57.00" routeLength="275.13" waitingTime="24.00" waitingCount="1" stopTime="0.00" timeLoss="36.63" rerouteNo="0" devices="tripinfo_127" vType="DEFAULT_VEHTYPE" speedFactor="1.00" vaporized=""/>
    <tripinfo id="270" depart="40.00" departLane="301_4way_22to4way_37_0" departPos="5.10" departSpeed="0.00" departDelay="0.01" arrival="76.00" arrivalLane="326_4way_37to4way_52_0" arrivalPos="85.60" arrivalSpeed="14.19" duration="36.00" routeLength="180.50" waitingTime="14.00" waitingCount="1" stopTime="0.00" timeLoss="23.67" rerouteNo="0" devices="tripinfo_270" vType="DEFAULT_VEHTYPE" speedFactor="1.09" vaporized=""/>
    <tripinfo id="307" depart="46.00" departLane="328_4way_53to4way_38_0" departPos="5.10" departSpeed="0.00" departDelay="0.53" arrival="76.00" arrivalLane="300_4way_23to4way_22_0" arrivalPos="85.60" arrivalSpeed="14.40" duration="30.00" routeLength="275.13" waitingTime="1.00" waitingCount="1" stopTime="0.00" timeLoss="10.53" rerouteNo="0" devices="tripinfo_307" vType="DEFAULT_VEHTYPE" speedFactor="1.04" vaporized=""/>
    <tripinfo id="26" depart="4.00" departLane="34_3way_164to4way_163_0" departPos="5.10" departSpeed="0.00" departDelay="0.15" arrival="77.00" arrivalLane="227_4way_163to4way_178_0" arrivalPos="85.60" arrivalSpeed="14.10" duration="73.00" routeLength="175.13" waitingTime="52.00" waitingCount="1" stopTime="0.00" timeLoss="59.69" rerouteNo="0" devices="tripinfo_26" vType="DEFAULT_VEHTYPE" speedFactor="1.03" vaporized=""/>
    <tripinfo id="73" depart="11.00" departLane="199_4way_147to4way_162_0" departPos="5.10" departSpeed="0.00" departDelay="0.19" arrival="77.00" arrivalLane="34_4way_163to3way_164_0" arrivalPos="85.60" arrivalSpeed="13.51" duration="66.00" routeLength="275.13" waitingTime="33.00" waitingCount="1" stopTime="0.00" timeLoss="44.62" rerouteNo="0" devices="tripinfo_73" vType="DEFAULT_VEHTYPE" speedFactor="0.98" vaporized=""/>
    <tripinfo id="209" depart="31.00" departLane="227_4way_178to4way_163_0" departPos="5.10" departSpeed="0.00" departDelay="0.05" arrival="77.00" arrivalLane="175_4way_148to4way_133_0" arrivalPos="85.60" arrivalSpeed="12.37" duration="46.00" routeLength="280.50" waitingTime="16.00" waitingCount="1" stopTime="0.00" timeLoss="24.56" rerouteNo="0" devices="tripinfo_209" vType="DEFAULT_VEHTYPE" speedFactor="0.95" vaporized=""/>
    <tripinfo id="273" depart="41.00" departLane="178_4way_137to4way_138_0" departPos="5.10" departSpeed="0.00" departDelay="0.57" arrival="77.00" arrivalLane="182_4way_139to4way_140_0" arrivalPos="85.60" arrivalSpeed="13.89" duration="36.00" routeLength="280.50" waitingTime="7.00" waitingCount="1" stopTime="0.00" timeLoss="15.91" rerouteNo="0" devices="tripinfo_273" vType="DEFAULT_VEHTYPE" speedFactor="1.04" vaporized=""/>
    <tripinfo id="304" depart="46.00" departLane="203_4way_152to4way_153_0" departPos="5.10" departSpeed="0.00" departDelay="0.98" arrival="77.00" arrivalLane="205_4way_153to4way_154_0" arrivalPos="85.60" arrivalSpeed="12.82" duration="31.00" routeLength="180.50" waitingTime="9.00" waitingCount="1" stopTime="0.00" timeLoss="17.60" rerouteNo="0" devices="tripinfo_304" vType="DEFAULT_VEHTYPE" speedFactor="1.00" vaporized=""/>
    <tripinfo id="83" depart="13.00" departLane="256_4way_33to4way_18_0" departPos="5.10" departSpeed="0.00" departDelay="0.71" arrival="78.00" arrivalLane="77_4way_18to3way_3_0" arrivalPos="85.60" arrivalSpeed="12.76" duration="65.00" routeLength="180.50" waitingTime="42.00" waitingCount="1" stopTime="0.00" timeLoss="50.05" rerouteNo="0" devices="tripinfo_83" vType="DEFAULT_VEHTYPE" speedFactor="0.93" vaporized=""/>
    <tripinfo id="455" depart="68.00" departLane="28_3way_149to4way_148_0" departPos="5.10" departSpeed="0.00" departDelay="0.61" arrival="78.00" arrivalLane="28_3way_149to4way_148_0" arrivalPos="85.60" arrivalSpeed="14.89" duration="10.00" routeLength="80.50" waitingTime="0.00" waitingCount="0" stopTime="0.00" timeLoss="4.27" rerouteNo="0" devices="tripinfo_455" vType="DEFAULT_VEHTYPE" speedFactor="1.08" vaporized=""/>
    <tripinfo id="163" depart="25.00" departLane="216_4way_173to4way_158_0" departPos="5.10" departSpeed="0.00" departDelay="0.86" arrival="79.00" arrivalLane="191_4way_158to4way_143_0" arrivalPos="85.60" arrivalSpeed="12.74" duration="54.00" routeLength="180.50" waitingTime="31.00" waitingCount="1" stopTime="0.00" timeLoss="39.74" rerouteNo="0" devices="tripinfo_163" vType="DEFAULT_VEHTYPE" speedFactor="0.94" vaporized=""/>
    <tripinfo id="272" depart="41.00" departLane="246_4way_175to4way_174_0" departPos="5.10" departSpeed="0.00" departDelay="0.72" arrival="79.00" arrivalLane="244_4way_174to4way_173_0" arrivalPos="85.60" arrivalSpeed="9.94" duration="38.00" routeLength="180.50" waitingTime="13.00" waitingCount="1" stopTime="0.00" timeLoss="19.87" rerouteNo="0" devices="tripinfo_272" vType="DEFAULT_VEHTYPE" speedFactor="0.72" vaporized=""/>
    <tripinfo id="312" depart="47.00" departLane="272_4way_188to4way_203_0" departPos="5.10" departSpeed="0.00" departDelay="0.79" arrival="79.00" arrivalLane="293_4way_203to4way_204_0" arrivalPos="85.60" arrivalSpeed="13.59" duration="32.00" routeLength="175.13" waitingTime="8.00" waitingCount="1" stopTime="0.00" timeLoss="17.95" rerouteNo="0" devices="tripinfo_312" vType="DEFAULT_VEHTYPE" speedFactor="0.98" vaporized=""/>
    <tripinfo id="247" depart="37.00" departLane="232_4way_168to4way_169_0" departPos="5.10" departSpeed="0.00" departDelay="0.42" arrival="81.00" arrivalLane="208_4way_169to4way_154_0" arrivalPos="85.60" arrivalSpeed="14.30" duration="44.00" routeLength="175.13" waitingTime="21.00" waitingCount="1" stopTime="0.00" timeLoss="30.54" rerouteNo="0" devices="tripinfo_247" vType="DEFAULT_VEHTYPE" speedFactor="1.07" vaporized=""/>
    <tripinfo id="323" depart="48.00" departLane="28_3way_149to4way_148_0" departPos="5.10" departSpeed="0.00" departDelay="0.16" arrival="81.00" arrivalLane="196_4way_147to4way_146_0" arrivalPos="85.60" arrivalSpeed="14.49" duration="33.00" routeLength="280.50" waitingTime="4.00" waitingCount="1" stopTime="0.00" timeLoss="15.01" rerouteNo="0" devices="tripinfo_323" vType="DEFAULT_VEHTYPE" speedFactor="1.15" vaporized=""/>
    <tripinfo id="445" depart="66.00" departLane="184_4way_141to4way_140_0" departPos="5.10" departSpeed="0.00" departDelay="0.09" arrival="83.00" arrivalLane="182_4way_140to4way_139_0" arrivalPos="85.60" arrivalSpeed="13.08" duration="17.00" routeLength="180.50" waitingTime="0.00" waitingCount="0" stopTime="0.00" timeLoss="3.62" rerouteNo="0" devices="tripinfo_445" vType="DEFAULT_VEHTYPE" speedFactor="1.02" vaporized=""/>
    <tripinfo id="149" depart="23.00" departLane="116_4way_88to4way_103_0" departPos="5.10" departSpeed="0.00" departDelay="0.93" arrival="85.00" arrivalLane="150_4way_118to4way_133_0" arrivalPos="85.60" arrivalSpeed="12.42" duration="62.00" routeLength="280.50" waitingTime="31.00" waitingCount="1" stopTime="0.00" timeLoss="39.99" rerouteNo="0" devices="tripinfo_149" vType="DEFAULT_VEHTYPE" speedFactor="0.95" vaporized=""/>
    <tripinfo id="364" depart="54.00" departLane="125_4way_93to4way_108_0" departPos="5.10" departSpeed="0.00" departDelay="0.09" arrival="85.00" arrivalLane="126_4way_109to4way_110_0" arrivalPos="85.60" arrivalSpeed="13.13" duration="31.00" routeLength="275.13" waitingTime="0.00" waitingCount="0" stopTime="0.00" timeLoss="9.17" rerouteNo="0" devices="tripinfo_364" vType="DEFAULT_VEHTYPE" speedFactor="0.96" vaporized=""/>
    <tripinfo id="388" depart="58.00" departLane="384_4way_86to4way_71_0" departPos="5.10" departSpeed="0.00" departDelay="0.54" arrival="85.00" arrivalLane="356_4way_56to4way_55_0" arrivalPos="85.60" arrivalSpeed="12.00" duration="27.00" routeLength="275.13" waitingTime="0.00" waitingCount="0" stopTime="0.00" timeLoss="5.23" rerouteNo="0" devices="tripinfo_388" vType="DEFAULT_VEHTYPE" speedFactor="0.95" vaporized=""/>
    <tripinfo id="223" depart="34.00" departLane="114_4way_87to4way_102_0" departPos="5.10" departSpeed="0.00" departDelay="0.97" arrival="86.00" arrivalLane="148_4way_117to4way_118_0" arrivalPos="85.60" arrivalSpeed="13.21" duration="52.00" routeLength="275.13" waitingTime="22.00" waitingCount="1" stopTime="0.00" timeLoss="32.09" rerouteNo="0" devices="tripinfo_223" vType="DEFAULT_VEHTYPE" speedFactor="1.03" vaporized=""/>
    <tripinfo id="407" depart="61.00" departLane="259_4way_183to4way_182_0" departPos="5.10" departSpeed="0.00" departDelay="0.72" arrival="86.00" arrivalLane="40_4way_181to3way_180_0" arrivalPos="85.60" arrivalSpeed="12.53" duration="25.00" routeLength="280.50" waitingTime="0.00" waitingCount="0" stopTime="0.00" timeLoss="4.41" rerouteNo="0" devices="tripinfo_407" vType="DEFAULT_VEHTYPE" speedFactor="0.99" vaporized=""/>
    <tripinfo id="16" depart="3.00" departLane="184_4way_141to4way_140_0" departPos="5.10" departSpeed="0.00" departDelay="0.63" arrival="88.00" arrivalLane="183_4way_139to4way_154_0" arrivalPos="85.60" arrivalSpeed="11.80" duration="85.00" routeLength="275.13" waitingTime="52.00" waitingCount="1" stopTime="0.00" timeLoss="61.56" rerouteNo="0" devices="tripinfo_16" vType="DEFAULT_VEHTYPE" speedFactor="0.90" vaporized=""/>
    <tripinfo id="489" depart="73.00" departLane="194_4way_145to4way_146_0" departPos="5.10" departSpeed="0.00" departDelay="0.58" arrival="89.00" arrivalLane="196_4way_146to4way_147_0" arrivalPos="85.60" arrivalSpeed="14.92" duration="16.00" routeLength="180.50" waitingTime="0.00" waitingCount="0" stopTime="0.00" timeLoss="4.37" rerouteNo="0" devices="tripinfo_489" vType="DEFAULT_VEHTYPE" speedFactor="1.15" vaporized=""/>
    <tripinfo id="481" depart="72.00" departLane="391_4way_77to4way_92_0" departPos="5.10" departSpeed="0.00" departDelay="0.76" arrival="90.00" arrivalLane="122_4way_92to4way_107_0" arrivalPos="85.60" arrivalSpeed="12.56" duration="18.00" routeLength="180.50" waitingTime="0.00" waitingCount="0" stopTime="0.00" timeLoss="4.09" rerouteNo="0" devices="tripinfo_481" vType="DEFAULT_VEHTYPE" speedFactor="0.97" vaporized=""/>
    <tripinfo id="59" depart="9.00" departLane="245_4way_173to4way_188_0" departPos="5.10" departSpeed="0.00" departDelay="0.26" arrival="91.00" arrivalLane="295_4way_205to4way_206_0" arrivalPos="85.60" arrivalSpeed="13.85" duration="82.00" routeLength="475.13" waitingTime="38.00" waitingCount="1" stopTime="0.00" timeLoss="47.79" rerouteNo="0" devices="tripinfo_59" vType="DEFAULT_VEHTYPE" speedFactor="1.03" vaporized=""/>
    <tripinfo id="142" depart="22.00" departLane="62_3way_217to4way_202_0" departPos="5.10" departSpeed="0.00" departDelay="0.97" arrival="91.00" arrivalLane="259_4way_183to4way_182_0" arrivalPos="85.60" arrivalSpeed="14.30" duration="69.00" routeLength="675.13" waitingTime="9.00" waitingCount="1" stopTime="0.00" timeLoss="23.20" rerouteNo="0" devices="tripinfo_142" vType="DEFAULT_VEHTYPE" speedFactor="1.09" vaporized=""/>
    <tripinfo id="530" depart="85.00" departLane="45_3way_3to3way_2_0" departPos="5.10" departSpeed="0.00" departDelay="6.51" arrival="95.00" arrivalLane="45_3way_3to3way_2_0" arrivalPos="85.60" arrivalSpeed="11.09" duration="10.00" routeLength="80.50" waitingTime="0.00" waitingCount="0" stopTime="0.00" timeLoss="2.92" rerouteNo="0" devices="tripinfo_530" vType="DEFAULT_VEHTYPE" speedFactor="0.85" vaporized=""/>
    <tripinfo id="517" depart="78.00" departLane="119_4way_106to4way_91_0" departPos="5.10" departSpeed="0.00" departDelay="1.43" arrival="96.00" arrivalLane="389_4way_91to4way_76_0" arrivalPos="85.60" arrivalSpeed="13.58" duration="18.00" routeLength="180.50" waitingTime="0.00" waitingCount="0" stopTime="0.00" timeLoss="3.90" rerouteNo="0" devices="tripinfo_517" vType="DEFAULT_VEHTYPE" speedFactor="0.99" vaporized=""/>
    <tripinfo id="592" depart="88.00" departLane="302_4way_23to4way_24_0" departPos="5.10" departSpeed="0.00" departDelay="0.32" arrival="97.00" arrivalLane="302_4way_23to4way_24_0" arrivalPos="85.60" arrivalSpeed="13.51" duration="9.00" routeLength="80.50" waitingTime="0.00" waitingCount="0" stopTime="0.00" timeLoss="3.42" rerouteNo="0" devices="tripinfo_592" vType="DEFAULT_VEHTYPE" speedFactor="1.05" vaporized=""/>
    <tripinfo id="292" depart="44.00" departLane="21_3way_29to3way_13_0" departPos="5.10" departSpeed="0.00" departDelay="0.75" arrival="101.00" arrivalLane="5_3way_10to3way_9_0" arrivalPos="85.60" arrivalSpeed="14.91" duration="57.00" routeLength="577.30" waitingTime="4.00" waitingCount="1" stopTime="0.00" timeLoss="20.03" rerouteNo="0" devices="tripinfo_292" vType="DEFAULT_VEHTYPE" speedFactor="1.14" vaporized=""/>
    <tripinfo id="12" depart="2.00" departLane="270_4way_187to4way_202_0" departPos="5.10" departSpeed="0.00" departDelay="0.22" arrival="103.00" arrivalLane="71_3way_222to3way_223_0" arrivalPos="85.60" arrivalSpeed="15.38" duration="101.00" routeLength="775.13" waitingTime="37.00" waitingCount="1" stopTime="0.00" timeLoss="51.50" rerouteNo="0" devices="tripinfo_12" vType="DEFAULT_VEHTYPE" speedFactor="1.16" vaporized=""/>
    <tripinfo id="117" depart="18.00" departLane="342_4way_49to4way_48_0" departPos="5.10" departSpeed="0.00" departDelay="0.67" arrival="103.00" arrivalLane="11_3way_90to3way_105_0" arrivalPos="85.60" arrivalSpeed="11.61" duration="85.00" routeLength="775.13" waitingTime="11.00" waitingCount="1" stopTime="0.00" timeLoss="22.02" rerouteNo="0" devices="tripinfo_117" vType="DEFAULT_VEHTYPE" speedFactor="0.91" vaporized=""/>
    <tripinfo id="322" depart="48.00" departLane="353_4way_53to4way_68_0" departPos="5.10" departSpeed="0.00" departDelay="0.31" arrival="105.00" arrivalLane="166_4way_128to4way_143_0" arrivalPos="85.60" arrivalSpeed="13.68" duration="57.00" routeLength="580.50" waitingTime="6.00" waitingCount="1" stopTime="0.00" timeLoss="17.69" rerouteNo="0" devices="tripinfo_322" vType="DEFAULT_VEHTYPE" speedFactor="1.08" vaporized=""/>
    <tripinfo id="678" depart="101.00" departLane="304_4way_25to4way_24_0" departPos="5.10" departSpeed="0.00" departDelay="0.59" arrival="110.00" arrivalLane="304_4way_25to4way_24_0" arrivalPos="85.60" arrivalSpeed="13.03" duration="9.00" routeLength="80.50" waitingTime="0.00" waitingCount="0" stopTime="0.00" timeLoss="2.54" rerouteNo="0" devices="tripinfo_678" vType="DEFAULT_VEHTYPE" speedFactor="0.94" vaporized=""/>
    <tripinfo id="197" depart="30.00" departLane="362_4way_73to4way_58_0" departPos="5.10" departSpeed="0.00" departDelay="0.82" arrival="112.00" arrivalLane="100_3way_9to3way_8_0" arrivalPos="85.60" arrivalSpeed="13.92" duration="82.00" routeLength="875.13" waitingTime="1.00" waitingCount="1" stopTime="0.00" timeLoss="18.98" rerouteNo="0" devices="tripinfo_197" vType="DEFAULT_VEHTYPE" speedFactor="1.01" vaporized=""/>
    <tripinfo id="200" depart="30.00" departLane="312_4way_28to4way_43_0" departPos="5.10" departSpeed="0.00" departDelay="0.38" arrival="113.00" arrivalLane="27_3way_149to3way_164_0" arrivalPos="85.60" arrivalSpeed="12.99" duration="83.00" routeLength="974.92" waitingTime="0.00" waitingCount="0" stopTime="0.00" timeLoss="8.63" rerouteNo="0" devices="tripinfo_200" vType="DEFAULT_VEHTYPE" speedFactor="0.96" vaporized=""/>
    <tripinfo id="652" depart="97.00" departLane="306_4way_25to4way_26_0" departPos="5.10" departSpeed="0.00" departDelay="0.44" arrival="114.00" arrivalLane="308_4way_26to4way_27_0" arrivalPos="85.60" arrivalSpeed="13.39" duration="17.00" routeLength="180.50" waitingTime="0.00" waitingCount="0" stopTime="0.00" timeLoss="3.00" rerouteNo="0" devices="tripinfo_652" vType="DEFAULT_VEHTYPE" speedFactor="0.97" vaporized=""/>
    <tripinfo id="232" depart="36.00" departLane="341_4way_47to4way_62_0" departPos="5.10" departSpeed="0.00" departDelay="1.64" arrival="115.00" arrivalLane="180_4way_138to4way_139_0" arrivalPos="85.60" arrivalSpeed="13.76" duration="79.00" routeLength="775.13" waitingTime="8.00" waitingCount="1" stopTime="0.00" timeLoss="24.96" rerouteNo="0" devices="tripinfo_232" vType="DEFAULT_VEHTYPE" speedFactor="1.06" vaporized=""/>
    <tripinfo id="203" depart="31.00" departLane="94_3way_8to3way_7_0" departPos="5.10" departSpeed="0.00" departDelay="0.94" arrival="117.00" arrivalLane="401_4way_82to4way_97_0" arrivalPos="85.60" arrivalSpeed="13.16" duration="86.00" routeLength="675.13" waitingTime="23.00" waitingCount="1" stopTime="0.00" timeLoss="33.42" rerouteNo="0" devices="tripinfo_203" vType="DEFAULT_VEHTYPE" speedFactor="0.95" vaporized=""/>
    <tripinfo id="673" depart="100.00" departLane="316_4way_47to4way_32_0" departPos="5.10" departSpeed="0.00" departDelay="0.33" arrival="117.00" arrivalLane="237_4way_32to4way_17_0" arrivalPos="85.60" arrivalSpeed="14.43" duration="17.00" routeLength="180.50" waitingTime="0.00" waitingCount="0" stopTime="0.00" timeLoss="3.66" rerouteNo="0" devices="tripinfo_673" vType="DEFAULT_VEHTYPE" speedFactor="1.04" vaporized=""/>
    <tripinfo id="53" depart="8.00" departLane="211_4way_156to4way_157_0" departPos="5.10" departSpeed="0.00" departDelay="0.15" arrival="119.00" arrivalLane="301_4way_37to4way_22_0" arrivalPos="85.60" arrivalSpeed="17.23" duration="111.00" routeLength="975.13" waitingTime="37.00" waitingCount="1" stopTime="0.00" timeLoss="54.63" rerouteNo="0" devices="tripinfo_53" vType="DEFAULT_VEHTYPE" speedFactor="1.27" vaporized=""/>
    <tripinfo id="102" depart="16.00" departLane="74_3way_44to3way_29_0" departPos="5.10" departSpeed="0.00" departDelay="0.89" arrival="119.00" arrivalLane="90_3way_7to3way_6_0" arrivalPos="85.60" arrivalSpeed="14.15" duration="103.00" routeLength="977.30" waitingTime="20.00" waitingCount="1" stopTime="0.00" timeLoss="35.61" rerouteNo="0" devices="tripinfo_102" vType="DEFAULT_VEHTYPE" speedFactor="1.05" vaporized=""/>
    <tripinfo id="655" depart="98.00" departLane="272_4way_188to4way_203_0" departPos="5.10" departSpeed="0.00" departDelay="0.99" arrival="123.00" arrivalLane="294_4way_204to4way_205_0" arrivalPos="85.60" arrivalSpeed="14.92" duration="25.00" routeLength="275.13" waitingTime="0.00" waitingCount="0" stopTime="0.00" timeLoss="6.24" rerouteNo="0" devices="tripinfo_655" vType="DEFAULT_VEHTYPE" speedFactor="1.11" vaporized=""/>
    <tripinfo id="471" depart="70.00" departLane="366_4way_62to4way_77_0" departPos="5.10" departSpeed="0.00" departDelay="0.24" arrival="127.00" arrivalLane="203_4way_152to4way_153_0" arrivalPos="85.60" arrivalSpeed="14.45" duration="57.00" routeLength="675.13" waitingTime="0.00" waitingCount="0" stopTime="0.00" timeLoss="10.54" rerouteNo="0" devices="tripinfo_471" vType="DEFAULT_VEHTYPE" speedFactor="1.07" vaporized=""/>
    <tripinfo id="737" depart="110.00" departLane="331_4way_41to4way_40_0" departPos="5.10" departSpeed="0.00" departDelay="0.85" arrival="129.00" arrivalLane="329_4way_40to4way_39_0" arrivalPos="85.60" arrivalSpeed="13.31" duration="19.00" routeLength="180.50" waitingTime="0.00" waitingCount="0" stopTime="0.00" timeLoss="4.98" rerouteNo="0" devices="tripinfo_737" vType="DEFAULT_VEHTYPE" speedFactor="0.99" vaporized=""/>
    <tripinfo id="301" depart="45.00" departLane="322_4way_35to4way_50_0" departPos="5.10" departSpeed="0.00" departDelay="0.42" arrival="130.00" arrivalLane="398_4way_81to4way_82_0" arrivalPos="85.60" arrivalSpeed="6.42" duration="85.00" routeLength="475.13" waitingTime="30.00" waitingCount="2" stopTime="0.00" timeLoss="46.95" rerouteNo="0" devices="tripinfo_301" vType="DEFAULT_VEHTYPE" speedFactor="0.92" vaporized=""/>
    <tripinfo id="446" depart="67.00" departLane="130_4way_110to4way_125_0" departPos="5.10" departSpeed="0.00" departDelay="0.95" arrival="130.00" arrivalLane="161_4way_126to4way_127_0" arrivalPos="85.60" arrivalSpeed="5.55" duration="63.00" routeLength="275.13" waitingTime="34.00" waitingCount="1" stopTime="0.00" timeLoss="43.92" rerouteNo="0" devices="tripinfo_446" vType="DEFAULT_VEHTYPE" speedFactor="1.07" vaporized=""/>