<?xml version="1.0" encoding="UTF-8"?>

<!-- generated on 2023-07-27 19:18:46 by Eclipse SUMO sumo Version 1.12.0
<configuration xmlns:xsi="http://www.w3.org/2001/XMLSchema-instance" xsi:noNamespaceSchemaLocation="http://sumo.dlr.de/xsd/sumoConfiguration.xsd">

    <input>
        <net-file value="../../data_generation/sq.net.xml"/>
        <route-files value="../../data_generation/sq.rou.xml"/>
    </input>

    <output>
        <tripinfo-output value="tripinfo.xml"/>
        <statistic-output value="statistic.xml"/>
    </output>

    <time>
        <begin value="0"/>
        <end value="3600"/>
    </time>

    <processing>
        <time-to-teleport value="-1"/>
    </processing>

    <traci_server>
        <remote-port value="56335"/>
    </traci_server>

    <random_number>
        <seed value="1395"/>
    </random_number>

    <gui_only>
        <gui-settings-file value="../../data_generation/view_HY_0402.xml"/>
    </gui_only>

</configuration>
-->

<tripinfos xmlns:xsi="http://www.w3.org/2001/XMLSchema-instance" xsi:noNamespaceSchemaLocation="http://sumo.dlr.de/xsd/tripinfo_file.xsd">
    <tripinfo id="21" depart="6.00" departLane="24_3way_31to3way_32_0" departPos="5.10" departSpeed="0.00" departDelay="0.17" arrival="16.00" arrivalLane="24_3way_31to3way_32_0" arrivalPos="85.60" arrivalSpeed="11.25" duration="10.00" routeLength="80.50" waitingTime="0.00" waitingCount="0" stopTime="0.00" timeLoss="2.57" rerouteNo="0" devices="tripinfo_21" vType="DEFAULT_VEHTYPE" speedFactor="0.82" vaporized=""/>
    <tripinfo id="24" depart="7.00" departLane="10_3way_17to3way_23_0" departPos="5.10" departSpeed="0.00" departDelay="0.33" arrival="16.00" arrivalLane="10_3way_17to3way_23_0" arrivalPos="85.60" arrivalSpeed="12.23" duration="9.00" routeLength="80.50" waitingTime="0.00" waitingCount="0" stopTime="0.00" timeLoss="3.02" rerouteNo="0" devices="tripinfo_24" vType="DEFAULT_VEHTYPE" speedFactor="0.97" vaporized=""/>
    <tripinfo id="0" depart="0.00" departLane="39_4way_20to4way_14_0" departPos="5.10" departSpeed="0.00" departDelay="0.00" arrival="18.00" arrivalLane="35_4way_14to4way_13_0" arrivalPos="85.60" arrivalSpeed="13.68" duration="18.00" routeLength="175.13" waitingTime="0.00" waitingCount="0" stopTime="0.00" timeLoss="4.86" rerouteNo="0" devices="tripinfo_0" vType="DEFAULT_VEHTYPE" speedFactor="1.00" vaporized=""/>
    <tripinfo id="15" depart="5.00" departLane="13_4way_19to3way_18_0" departPos="5.10" departSpeed="0.00" departDelay="0.83" arrival="24.00" arrivalLane="7_3way_18to3way_12_0" arrivalPos="85.60" arrivalSpeed="13.39" duration="19.00" routeLength="180.29" waitingTime="0.00" waitingCount="0" stopTime="0.00" timeLoss="5.03" rerouteNo="0" devices="tripinfo_15" vType="DEFAULT_VEHTYPE" speedFactor="1.05" vaporized=""/>
    <tripinfo id="11" depart="4.00" departLane="56_4way_8to4way_9_0" departPos="5.10" departSpeed="0.00" departDelay="0.94" arrival="32.00" arrivalLane="22_3way_3to3way_4_0" arrivalPos="85.60" arrivalSpeed="13.53" duration="28.00" routeLength="274.92" waitingTime="0.00" waitingCount="0" stopTime="0.00" timeLoss="6.41" rerouteNo="0" devices="tripinfo_11" vType="DEFAULT_VEHTYPE" speedFactor="1.01" vaporized=""/>
    <tripinfo id="17" depart="5.00" departLane="39_4way_14to4way_20_0" departPos="5.10" departSpeed="0.00" departDelay="0.28" arrival="32.00" arrivalLane="49_4way_21to4way_22_0" arrivalPos="85.60" arrivalSpeed="13.23" duration="27.00" routeLength="275.13" waitingTime="0.00" waitingCount="0" stopTime="0.00" timeLoss="6.62" rerouteNo="0" devices="tripinfo_17" vType="DEFAULT_VEHTYPE" speedFactor="1.04" vaporized=""/>
    <tripinfo id="19" depart="6.00" departLane="15_3way_2to4way_8_0" departPos="5.10" departSpeed="0.00" departDelay="0.72" arrival="33.00" arrivalLane="39_4way_14to4way_20_0" arrivalPos="85.60" arrivalSpeed="11.98" duration="27.00" routeLength="280.50" waitingTime="0.00" waitingCount="0" stopTime="0.00" timeLoss="4.03" rerouteNo="0" devices="tripinfo_19" vType="DEFAULT_VEHTYPE" speedFactor="0.89" vaporized=""/>
    <tripinfo id="88" depart="25.00" departLane="36_4way_19to4way_13_0" departPos="5.10" departSpeed="0.00" departDelay="0.56" arrival="34.00" arrivalLane="36_4way_19to4way_13_0" arrivalPos="85.60" arrivalSpeed="13.55" duration="9.00" routeLength="80.50" waitingTime="0.00" waitingCount="0" stopTime="0.00" timeLoss="3.27" rerouteNo="0" devices="tripinfo_88" vType="DEFAULT_VEHTYPE" speedFactor="1.06" vaporized=""/>
    <tripinfo id="77" depart="26.00" departLane="54_4way_27to4way_28_0" departPos="5.10" departSpeed="0.00" departDelay="4.62" arrival="36.00" arrivalLane="54_4way_27to4way_28_0" arrivalPos="85.60" arrivalSpeed="12.68" duration="10.00" routeLength="80.50" waitingTime="0.00" waitingCount="0" stopTime="0.00" timeLoss="3.30" rerouteNo="0" devices="tripinfo_77" vType="DEFAULT_VEHTYPE" speedFactor="0.99" vaporized=""/>
    <tripinfo id="42" depart="12.00" departLane="39_4way_14to4way_20_0" departPos="5.10" departSpeed="0.00" departDelay="0.34" arrival="37.00" arrivalLane="27_4way_26to3way_32_0" arrivalPos="85.60" arrivalSpeed="12.86" duration="25.00" routeLength="280.50" waitingTime="0.00" waitingCount="0" stopTime="0.00" timeLoss="4.17" rerouteNo="0" devices="tripinfo_42" vType="DEFAULT_VEHTYPE" speedFactor="0.99" vaporized=""/>
    <tripinfo id="58" depart="17.00" departLane="19_4way_25to3way_24_0" departPos="5.10" departSpeed="0.00" departDelay="0.89" arrival="37.00" arrivalLane="12_3way_24to3way_18_0" arrivalPos="85.60" arrivalSpeed="12.86" duration="20.00" routeLength="180.29" waitingTime="0.00" waitingCount="0" stopTime="0.00" timeLoss="4.65" rerouteNo="0" devices="tripinfo_58" vType="DEFAULT_VEHTYPE" speedFactor="0.93" vaporized=""/>
    <tripinfo id="34" depart="10.00" departLane="15_3way_2to4way_8_0" departPos="5.10" departSpeed="0.00" departDelay="0.56" arrival="43.00" arrivalLane="48_4way_20to4way_26_0" arrivalPos="85.60" arrivalSpeed="12.67" duration="33.00" routeLength="380.50" waitingTime="0.00" waitingCount="0" stopTime="0.00" timeLoss="4.19" rerouteNo="0" devices="tripinfo_34" vType="DEFAULT_VEHTYPE" speedFactor="0.96" vaporized=""/>
    <tripinfo id="67" depart="25.00" departLane="47_4way_20to4way_21_0" departPos="5.10" departSpeed="0.00" departDelay="6.39" arrival="45.00" arrivalLane="42_4way_21to4way_15_0" arrivalPos="85.60" arrivalSpeed="11.83" duration="20.00" routeLength="175.13" waitingTime="0.00" waitingCount="0" stopTime="0.00" timeLoss="4.22" rerouteNo="0" devices="tripinfo_67" vType="DEFAULT_VEHTYPE" speedFactor="0.88" vaporized=""/>
    <tripinfo id="97" depart="27.00" departLane="14_3way_3to3way_2_0" departPos="5.10" departSpeed="0.00" departDelay="0.06" arrival="45.00" arrivalLane="1_3way_2to3way_1_0" arrivalPos="85.60" arrivalSpeed="12.86" duration="18.00" routeLength="180.50" waitingTime="0.00" waitingCount="0" stopTime="0.00" timeLoss="5.30" rerouteNo="0" devices="tripinfo_97" vType="DEFAULT_VEHTYPE" speedFactor="1.06" vaporized=""/>
    <tripinfo id="123" depart="36.00" departLane="36_4way_19to4way_13_0" departPos="5.10" departSpeed="0.00" departDelay="1.84" arrival="45.00" arrivalLane="36_4way_19to4way_13_0" arrivalPos="85.60" arrivalSpeed="13.74" duration="9.00" routeLength="80.50" waitingTime="0.00" waitingCount="0" stopTime="0.00" timeLoss="3.54" rerouteNo="0" devices="tripinfo_123" vType="DEFAULT_VEHTYPE" speedFactor="1.06" vaporized=""/>
    <tripinfo id="127" depart="36.00" departLane="38_4way_15to4way_14_0" departPos="5.10" departSpeed="0.00" departDelay="0.73" arrival="45.00" arrivalLane="38_4way_15to4way_14_0" arrivalPos="85.60" arrivalSpeed="13.78" duration="9.00" routeLength="80.50" waitingTime="0.00" waitingCount="0" stopTime="0.00" timeLoss="3.13" rerouteNo="0" devices="tripinfo_127" vType="DEFAULT_VEHTYPE" speedFactor="1.00" vaporized=""/>
    <tripinfo id="93" depart="29.00" departLane="20_3way_34to3way_29_0" departPos="5.10" departSpeed="0.00" departDelay="3.17" arrival="46.00" arrivalLane="20_3way_34to3way_29_0" arrivalPos="182.40" arrivalSpeed="13.12" duration="17.00" routeLength="177.30" waitingTime="0.00" waitingCount="0" stopTime="0.00" timeLoss="3.62" rerouteNo="0" devices="tripinfo_93" vType="DEFAULT_VEHTYPE" speedFactor="1.00" vaporized=""/>
    <tripinfo id="84" depart="24.00" departLane="15_3way_2to4way_8_0" departPos="5.10" departSpeed="0.00" departDelay="0.67" arrival="47.00" arrivalLane="39_4way_14to4way_20_0" arrivalPos="85.60" arrivalSpeed="14.04" duration="23.00" routeLength="280.50" waitingTime="0.00" waitingCount="0" stopTime="0.00" timeLoss="3.76" rerouteNo="0" devices="tripinfo_84" vType="DEFAULT_VEHTYPE" speedFactor="1.06" vaporized=""/>
    <tripinfo id="98" depart="28.00" departLane="9_3way_12to4way_13_0" departPos="5.10" departSpeed="0.00" departDelay="0.78" arrival="47.00" arrivalLane="35_4way_13to4way_14_0" arrivalPos="85.60" arrivalSpeed="11.54" duration="19.00" routeLength="180.50" waitingTime="0.00" waitingCount="0" stopTime="0.00" timeLoss="3.44" rerouteNo="0" devices="tripinfo_98" vType="DEFAULT_VEHTYPE" speedFactor="0.88" vaporized=""/>
    <tripinfo id="135" depart="38.00" departLane="29_4way_27to3way_33_0" departPos="5.10" departSpeed="0.00" departDelay="0.51" arrival="48.00" arrivalLane="29_4way_27to3way_33_0" arrivalPos="85.60" arrivalSpeed="15.13" duration="10.00" routeLength="80.50" waitingTime="0.00" waitingCount="0" stopTime="0.00" timeLoss="3.70" rerouteNo="0" devices="tripinfo_135" vType="DEFAULT_VEHTYPE" speedFactor="1.09" vaporized=""/>
    <tripinfo id="103" depart="29.00" departLane="18_3way_24to3way_31_0" departPos="5.10" departSpeed="0.00" departDelay="0.40" arrival="51.00" arrivalLane="24_3way_31to3way_32_0" arrivalPos="85.60" arrivalSpeed="15.46" duration="22.00" routeLength="277.30" waitingTime="0.00" waitingCount="0" stopTime="0.00" timeLoss="4.48" rerouteNo="0" devices="tripinfo_103" vType="DEFAULT_VEHTYPE" speedFactor="1.15" vaporized=""/>
    <tripinfo id="153" depart="43.00" departLane="53_4way_26to4way_27_0" departPos="5.10" departSpeed="0.00" departDelay="0.51" arrival="53.00" arrivalLane="53_4way_26to4way_27_0" arrivalPos="85.60" arrivalSpeed="11.89" duration="10.00" routeLength="80.50" waitingTime="0.00" waitingCount="0" stopTime="0.00" timeLoss="2.72" rerouteNo="0" devices="tripinfo_153" vType="DEFAULT_VEHTYPE" speedFactor="0.90" vaporized=""/>
    <tripinfo id="157" depart="44.00" departLane="39_4way_20to4way_14_0" departPos="5.10" departSpeed="0.00" departDelay="0.40" arrival="54.00" arrivalLane="39_4way_20to4way_14_0" arrivalPos="85.60" arrivalSpeed="12.16" duration="10.00" routeLength="80.50" waitingTime="0.00" waitingCount="0" stopTime="0.00" timeLoss="3.27" rerouteNo="0" devices="tripinfo_157" vType="DEFAULT_VEHTYPE" speedFactor="0.94" vaporized=""/>
    <tripinfo id="102" depart="29.00" departLane="23_4way_9to3way_3_0" departPos="5.10" departSpeed="0.00" departDelay="0.67" arrival="55.00" arrivalLane="1_3way_2to3way_1_0" arrivalPos="85.60" arrivalSpeed="14.16" duration="26.00" routeLength="275.13" waitingTime="0.00" waitingCount="0" stopTime="0.00" timeLoss="5.76" rerouteNo="0" devices="tripinfo_102" vType="DEFAULT_VEHTYPE" speedFactor="1.05" vaporized=""/>
    <tripinfo id="57" depart="21.00" departLane="40_4way_8to4way_14_0" departPos="5.10" departSpeed="0.00" departDelay="5.17" arrival="56.00" arrivalLane="49_4way_21to4way_22_0" arrivalPos="85.60" arrivalSpeed="13.01" duration="35.00" routeLength="375.13" waitingTime="0.00" waitingCount="0" stopTime="0.00" timeLoss="5.95" rerouteNo="0" devices="tripinfo_57" vType="DEFAULT_VEHTYPE" speedFactor="0.97" vaporized=""/>
    <tripinfo id="168" depart="47.00" departLane="15_3way_2to4way_8_0" departPos="5.10" departSpeed="0.00" departDelay="0.35" arrival="56.00" arrivalLane="15_3way_2to4way_8_0" arrivalPos="85.60" arrivalSpeed="14.97" duration="9.00" routeLength="80.50" waitingTime="0.00" waitingCount="0" stopTime="0.00" timeLoss="3.12" rerouteNo="0" devices="tripinfo_168" vType="DEFAULT_VEHTYPE" speedFactor="1.10" vaporized=""/>
    <tripinfo id="170" depart="48.00" departLane="35_4way_14to4way_13_0" departPos="5.10" departSpeed="0.00" departDelay="0.79" arrival="57.00" arrivalLane="35_4way_14to4way_13_0" arrivalPos="85.60" arrivalSpeed="13.06" duration="9.00" routeLength="80.50" waitingTime="0.00" waitingCount="0" stopTime="0.00" timeLoss="2.83" rerouteNo="0" devices="tripinfo_170" vType="DEFAULT_VEHTYPE" speedFactor="1.00" vaporized=""/>
    <tripinfo id="132" depart="37.00" departLane="17_4way_22to3way_23_0" departPos="5.10" departSpeed="0.00" departDelay="0.34" arrival="59.00" arrivalLane="16_3way_23to3way_29_0" arrivalPos="85.60" arrivalSpeed="11.37" duration="22.00" routeLength="180.29" waitingTime="0.00" waitingCount="0" stopTime="0.00" timeLoss="5.77" rerouteNo="0" devices="tripinfo_132" vType="DEFAULT_VEHTYPE" speedFactor="0.86" vaporized=""/>
    <tripinfo id="139" depart="39.00" departLane="55_4way_8to4way_7_0" departPos="5.10" departSpeed="0.00" departDelay="0.40" arrival="59.00" arrivalLane="32_4way_7to3way_6_0" arrivalPos="85.60" arrivalSpeed="8.68" duration="20.00" routeLength="180.50" waitingTime="0.00" waitingCount="0" stopTime="0.00" timeLoss="7.82" rerouteNo="0" devices="tripinfo_139" vType="DEFAULT_VEHTYPE" speedFactor="1.09" vaporized=""/>
    <tripinfo id="141" depart="40.00" departLane="17_3way_23to4way_22_0" departPos="5.10" departSpeed="0.00" departDelay="0.84" arrival="59.00" arrivalLane="49_4way_22to4way_21_0" arrivalPos="85.60" arrivalSpeed="13.52" duration="19.00" routeLength="180.50" waitingTime="0.00" waitingCount="0" stopTime="0.00" timeLoss="5.01" rerouteNo="0" devices="tripinfo_141" vType="DEFAULT_VEHTYPE" speedFactor="0.99" vaporized=""/>
    <tripinfo id="174" depart="49.00" departLane="9_3way_12to4way_13_0" departPos="5.10" departSpeed="0.00" departDelay="0.68" arrival="59.00" arrivalLane="9_3way_12to4way_13_0" arrivalPos="85.60" arrivalSpeed="12.02" duration="10.00" routeLength="80.50" waitingTime="0.00" waitingCount="0" stopTime="0.00" timeLoss="3.17" rerouteNo="0" devices="tripinfo_174" vType="DEFAULT_VEHTYPE" speedFactor="0.94" vaporized=""/>
    <tripinfo id="150" depart="42.00" departLane="6_3way_11to4way_10_0" departPos="5.10" departSpeed="0.00" departDelay="0.34" arrival="60.00" arrivalLane="34_4way_10to4way_9_0" arrivalPos="85.60" arrivalSpeed="11.65" duration="18.00" routeLength="180.50" waitingTime="0.00" waitingCount="0" stopTime="0.00" timeLoss="3.65" rerouteNo="0" devices="tripinfo_150" vType="DEFAULT_VEHTYPE" speedFactor="0.92" vaporized=""/>
    <tripinfo id="179" depart="50.00" departLane="56_4way_8to4way_9_0" departPos="5.10" departSpeed="0.00" departDelay="0.29" arrival="60.00" arrivalLane="56_4way_8to4way_9_0" arrivalPos="85.60" arrivalSpeed="13.20" duration="10.00" routeLength="80.50" waitingTime="0.00" waitingCount="0" stopTime="0.00" timeLoss="3.12" rerouteNo="0" devices="tripinfo_179" vType="DEFAULT_VEHTYPE" speedFactor="0.97" vaporized=""/>
    <tripinfo id="178" depart="51.00" departLane="27_3way_32to4way_26_0" departPos="5.10" departSpeed="0.00" departDelay="1.57" arrival="67.00" arrivalLane="48_4way_26to4way_20_0" arrivalPos="85.60" arrivalSpeed="14.72" duration="16.00" routeLength="180.50" waitingTime="0.00" waitingCount="0" stopTime="0.00" timeLoss="3.24" rerouteNo="0" devices="tripinfo_178" vType="DEFAULT_VEHTYPE" speedFactor="1.07" vaporized=""/>
    <tripinfo id="76" depart="22.00" departLane="53_4way_27to4way_26_0" departPos="5.10" departSpeed="0.00" departDelay="0.89" arrival="70.00" arrivalLane="53_4way_27to4way_26_0" arrivalPos="85.60" arrivalSpeed="6.65" duration="48.00" routeLength="80.50" waitingTime="34.00" waitingCount="1" stopTime="0.00" timeLoss="41.12" rerouteNo="0" devices="tripinfo_76" vType="DEFAULT_VEHTYPE" speedFactor="0.90" vaporized=""/>
    <tripinfo id="100" depart="28.00" departLane="17_3way_23to4way_22_0" departPos="5.10" departSpeed="0.00" departDelay="0.23" arrival="70.00" arrivalLane="51_4way_22to4way_28_0" arrivalPos="85.60" arrivalSpeed="6.01" duration="42.00" routeLength="175.13" waitingTime="20.00" waitingCount="1" stopTime="0.00" timeLoss="30.79" rerouteNo="0" devices="tripinfo_100" vType="DEFAULT_VEHTYPE" speedFactor="1.20" vaporized=""/>
    <tripinfo id="145" depart="41.00" departLane="43_4way_9to4way_15_0" departPos="5.10" departSpeed="0.00" departDelay="0.73" arrival="70.00" arrivalLane="41_4way_15to4way_16_0" arrivalPos="85.60" arrivalSpeed="5.03" duration="29.00" routeLength="175.13" waitingTime="4.00" waitingCount="1" stopTime="0.00" timeLoss="14.76" rerouteNo="0" devices="tripinfo_145" vType="DEFAULT_VEHTYPE" speedFactor="0.96" vaporized=""/>
    <tripinfo id="182" depart="51.00" departLane="13_4way_19to3way_18_0" departPos="5.10" departSpeed="0.00" departDelay="0.46" arrival="71.00" arrivalLane="7_3way_18to3way_12_0" arrivalPos="85.60" arrivalSpeed="12.39" duration="20.00" routeLength="180.29" waitingTime="0.00" waitingCount="0" stopTime="0.00" timeLoss="3.96" rerouteNo="0" devices="tripinfo_182" vType="DEFAULT_VEHTYPE" speedFactor="0.90" vaporized=""/>
    <tripinfo id="111" depart="31.00" departLane="3_3way_1to4way_7_0" departPos="5.10" departSpeed="0.00" departDelay="0.17" arrival="72.00" arrivalLane="3_3way_1to4way_7_0" arrivalPos="85.60" arrivalSpeed="7.30" duration="41.00" routeLength="80.50" waitingTime="26.00" waitingCount="1" stopTime="0.00" timeLoss="34.10" rerouteNo="0" devices="tripinfo_111" vType="DEFAULT_VEHTYPE" speedFactor="0.84" vaporized=""/>
    <tripinfo id="199" depart="56.00" departLane="20_3way_34to3way_29_0" departPos="5.10" departSpeed="0.00" departDelay="0.74" arrival="72.00" arrivalLane="20_3way_34to3way_29_0" arrivalPos="182.40" arrivalSpeed="15.51" duration="16.00" routeLength="177.30" waitingTime="0.00" waitingCount="0" stopTime="0.00" timeLoss="4.78" rerouteNo="0" devices="tripinfo_199" vType="DEFAULT_VEHTYPE" speedFactor="1.20" vaporized=""/>
    <tripinfo id="55" depart="22.00" departLane="47_4way_20to4way_21_0" departPos="5.10" departSpeed="0.00" departDelay="6.73" arrival="73.00" arrivalLane="33_4way_16to4way_10_0" arrivalPos="85.60" arrivalSpeed="8.75" duration="51.00" routeLength="375.13" waitingTime="10.00" waitingCount="1" stopTime="0.00" timeLoss="20.78" rerouteNo="0" devices="tripinfo_55" vType="DEFAULT_VEHTYPE" speedFactor="0.94" vaporized=""/>
    <tripinfo id="91" depart="26.00" departLane="17_4way_22to3way_23_0" departPos="5.10" departSpeed="0.00" departDelay="0.73" arrival="73.00" arrivalLane="10_3way_23to3way_17_0" arrivalPos="85.60" arrivalSpeed="9.18" duration="47.00" routeLength="175.13" waitingTime="21.00" waitingCount="1" stopTime="0.00" timeLoss="33.48" rerouteNo="0" devices="tripinfo_91" vType="DEFAULT_VEHTYPE" speedFactor="1.04" vaporized=""/>
    <tripinfo id="109" depart="31.00" departLane="53_4way_26to4way_27_0" departPos="5.10" departSpeed="0.00" departDelay="0.73" arrival="74.00" arrivalLane="51_4way_28to4way_22_0" arrivalPos="85.60" arrivalSpeed="7.82" duration="43.00" routeLength="275.13" waitingTime="13.00" waitingCount="1" stopTime="0.00" timeLoss="23.07" rerouteNo="0" devices="tripinfo_109" vType="DEFAULT_VEHTYPE" speedFactor="1.04" vaporized=""/>
    <tripinfo id="161" depart="48.00" departLane="24_3way_31to3way_32_0" departPos="5.10" departSpeed="0.00" departDelay="3.29" arrival="74.00" arrivalLane="28_3way_33to3way_34_0" arrivalPos="85.60" arrivalSpeed="12.00" duration="26.00" routeLength="280.50" waitingTime="0.00" waitingCount="0" stopTime="0.00" timeLoss="3.98" rerouteNo="0" devices="tripinfo_161" vType="DEFAULT_VEHTYPE" speedFactor="0.95" vaporized=""/>
    <tripinfo id="80" depart="23.00" departLane="1_3way_2to3way_1_0" departPos="5.10" departSpeed="0.00" departDelay="0.78" arrival="75.00" arrivalLane="3_3way_1to4way_7_0" arrivalPos="85.60" arrivalSpeed="10.57" duration="52.00" routeLength="175.13" waitingTime="25.00" waitingCount="1" stopTime="0.00" timeLoss="34.04" rerouteNo="0" devices="tripinfo_80" vType="DEFAULT_VEHTYPE" speedFactor="0.78" vaporized=""/>
    <tripinfo id="107" depart="30.00" departLane="17_4way_22to3way_23_0" departPos="5.10" departSpeed="0.00" departDelay="0.29" arrival="75.00" arrivalLane="10_3way_23to3way_17_0" arrivalPos="85.60" arrivalSpeed="11.51" duration="45.00" routeLength="175.13" waitingTime="20.00" waitingCount="1" stopTime="0.00" timeLoss="32.31" rerouteNo="0" devices="tripinfo_107" vType="DEFAULT_VEHTYPE" speedFactor="1.10" vaporized=""/>
    <tripinfo id="144" depart="44.00" departLane="51_4way_22to4way_28_0" departPos="5.10" departSpeed="0.00" departDelay="4.01" arrival="75.00" arrivalLane="51_4way_22to4way_28_0" arrivalPos="85.60" arrivalSpeed="9.60" duration="31.00" routeLength="80.50" waitingTime="14.00" waitingCount="1" stopTime="0.00" timeLoss="25.06" rerouteNo="0" devices="tripinfo_144" vType="DEFAULT_VEHTYPE" speedFactor="1.07" vaporized=""/>
    <tripinfo id="2" depart="1.00" departLane="55_4way_8to4way_7_0" departPos="5.10" departSpeed="0.00" departDelay="0.44" arrival="76.00" arrivalLane="7_3way_12to3way_18_0" arrivalPos="85.60" arrivalSpeed="8.49" duration="75.00" routeLength="375.13" waitingTime="35.00" waitingCount="1" stopTime="0.00" timeLoss="48.33" rerouteNo="0" devices="tripinfo_2" vType="DEFAULT_VEHTYPE" speedFactor="1.04" vaporized=""/>
    <tripinfo id="12" depart="4.00" departLane="17_4way_22to3way_23_0" departPos="5.10" departSpeed="0.00" departDelay="0.67" arrival="76.00" arrivalLane="4_3way_17to3way_11_0" arrivalPos="85.60" arrivalSpeed="16.04" duration="72.00" routeLength="275.13" waitingTime="42.00" waitingCount="1" stopTime="0.00" timeLoss="54.06" rerouteNo="0" devices="tripinfo_12" vType="DEFAULT_VEHTYPE" speedFactor="1.16" vaporized=""/>
    <tripinfo id="122" depart="34.00" departLane="23_3way_3to4way_9_0" departPos="5.10" departSpeed="0.00" departDelay="0.12" arrival="76.00" arrivalLane="34_4way_9to4way_10_0" arrivalPos="85.60" arrivalSpeed="15.70" duration="42.00" routeLength="175.13" waitingTime="20.00" waitingCount="1" stopTime="0.00" timeLoss="30.53" rerouteNo="0" devices="tripinfo_122" vType="DEFAULT_VEHTYPE" speedFactor="1.20" vaporized=""/>
    <tripinfo id="68" depart="19.00" departLane="33_4way_16to4way_10_0" departPos="5.10" departSpeed="0.00" departDelay="0.12" arrival="77.00" arrivalLane="31_4way_10to3way_4_0" arrivalPos="85.60" arrivalSpeed="14.81" duration="58.00" routeLength="180.50" waitingTime="35.00" waitingCount="1" stopTime="0.00" timeLoss="45.45" rerouteNo="0" devices="tripinfo_68" vType="DEFAULT_VEHTYPE" speedFactor="1.09" vaporized=""/>
    <tripinfo id="159" depart="45.00" departLane="41_4way_15to4way_16_0" departPos="5.10" departSpeed="0.00" departDelay="0.85" arrival="77.00" arrivalLane="11_4way_16to3way_17_0" arrivalPos="85.60" arrivalSpeed="13.71" duration="32.00" routeLength="180.50" waitingTime="10.00" waitingCount="1" stopTime="0.00" timeLoss="18.58" rerouteNo="0" devices="tripinfo_159" vType="DEFAULT_VEHTYPE" speedFactor="0.99" vaporized=""/>
    <tripinfo id="180" depart="50.00" departLane="10_3way_17to3way_23_0" departPos="5.10" departSpeed="0.00" departDelay="0.01" arrival="77.00" arrivalLane="16_3way_23to3way_29_0" arrivalPos="85.60" arrivalSpeed="14.44" duration="27.00" routeLength="180.50" waitingTime="4.00" waitingCount="1" stopTime="0.00" timeLoss="14.32" rerouteNo="0" devices="tripinfo_180" vType="DEFAULT_VEHTYPE" speedFactor="1.04" vaporized=""/>
    <tripinfo id="181" depart="51.00" departLane="44_4way_22to4way_16_0" departPos="5.10" departSpeed="0.00" departDelay="0.74" arrival="77.00" arrivalLane="41_4way_16to4way_15_0" arrivalPos="85.60" arrivalSpeed="12.34" duration="26.00" routeLength="175.13" waitingTime="0.00" waitingCount="0" stopTime="0.00" timeLoss="11.55" rerouteNo="0" devices="tripinfo_181" vType="DEFAULT_VEHTYPE" speedFactor="0.96" vaporized=""/>
    <tripinfo id="20" depart="6.00" departLane="4_3way_11to3way_17_0" departPos="5.10" departSpeed="0.00" departDelay="0.45" arrival="78.00" arrivalLane="10_3way_17to3way_23_0" arrivalPos="85.60" arrivalSpeed="12.19" duration="72.00" routeLength="180.50" waitingTime="48.00" waitingCount="1" stopTime="0.00" timeLoss="57.17" rerouteNo="0" devices="tripinfo_20" vType="DEFAULT_VEHTYPE" speedFactor="0.89" vaporized=""/>
    <tripinfo id="48" depart="14.00" departLane="49_4way_22to4way_21_0" departPos="5.10" departSpeed="0.00" departDelay="0.67" arrival="78.00" arrivalLane="48_4way_20to4way_26_0" arrivalPos="85.60" arrivalSpeed="10.64" duration="64.00" routeLength="275.13" waitingTime="31.00" waitingCount="1" stopTime="0.00" timeLoss="39.05" rerouteNo="0" devices="tripinfo_48" vType="DEFAULT_VEHTYPE" speedFactor="0.83" vaporized=""/>
    <tripinfo id="216" depart="60.00" departLane="30_4way_28to3way_34_0" departPos="5.10" departSpeed="0.00" departDelay="0.02" arrival="78.00" arrivalLane="28_3way_34to3way_33_0" arrivalPos="85.60" arrivalSpeed="14.42" duration="18.00" routeLength="180.29" waitingTime="0.00" waitingCount="0" stopTime="0.00" timeLoss="4.92" rerouteNo="0" devices="tripinfo_216" vType="DEFAULT_VEHTYPE" speedFactor="1.10" vaporized=""/>
    <tripinfo id="130" depart="37.00" departLane="33_4way_10to4way_16_0" departPos="5.10" departSpeed="0.00" departDelay="0.90" arrival="79.00" arrivalLane="51_4way_22to4way_28_0" arrivalPos="85.60" arrivalSpeed="13.20" duration="42.00" routeLength="280.50" waitingTime="12.00" waitingCount="1" stopTime="0.00" timeLoss="20.91" rerouteNo="0" devices="tripinfo_130" vType="DEFAULT_VEHTYPE" speedFactor="0.98" vaporized=""/>
    <tripinfo id="223" depart="62.00" departLane="10_3way_17to3way_23_0" departPos="5.10" departSpeed="0.00" departDelay="0.07" arrival="79.00" arrivalLane="16_3way_23to3way_29_0" arrivalPos="85.60" arrivalSpeed="13.84" duration="17.00" routeLength="180.50" waitingTime="0.00" waitingCount="0" stopTime="0.00" timeLoss="4.25" rerouteNo="0" devices="tripinfo_223" vType="DEFAULT_VEHTYPE" speedFactor="1.03" vaporized=""/>
    <tripinfo id="158" depart="44.00" departLane="18_3way_24to3way_31_0" departPos="5.10" departSpeed="0.00" departDelay="0.12" arrival="80.00" arrivalLane="26_3way_32to3way_33_0" arrivalPos="85.60" arrivalSpeed="12.09" duration="36.00" routeLength="377.30" waitingTime="0.00" waitingCount="0" stopTime="0.00" timeLoss="6.92" rerouteNo="0" devices="tripinfo_158" vType="DEFAULT_VEHTYPE" speedFactor="0.96" vaporized=""/>
    <tripinfo id="29" depart="9.00" departLane="24_3way_31to3way_32_0" departPos="5.10" departSpeed="0.00" departDelay="0.95" arrival="81.00" arrivalLane="16_3way_29to3way_23_0" arrivalPos="85.60" arrivalSpeed="12.69" duration="72.00" routeLength="577.30" waitingTime="14.00" waitingCount="1" stopTime="0.00" timeLoss="27.60" rerouteNo="0" devices="tripinfo_29" vType="DEFAULT_VEHTYPE" speedFactor="0.95" vaporized=""/>
    <tripinfo id="110" depart="31.00" departLane="17_3way_23to4way_22_0" departPos="5.10" departSpeed="0.00" departDelay="0.45" arrival="81.00" arrivalLane="30_4way_28to3way_34_0" arrivalPos="85.60" arrivalSpeed="13.78" duration="50.00" routeLength="275.13" waitingTime="16.00" waitingCount="1" stopTime="0.00" timeLoss="29.93" rerouteNo="0" devices="tripinfo_110" vType="DEFAULT_VEHTYPE" speedFactor="1.05" vaporized=""/>
    <tripinfo id="185" depart="52.00" departLane="41_4way_16to4way_15_0" departPos="5.10" departSpeed="0.00" departDelay="0.62" arrival="81.00" arrivalLane="42_4way_15to4way_21_0" arrivalPos="85.60" arrivalSpeed="15.47" duration="29.00" routeLength="175.13" waitingTime="6.00" waitingCount="1" stopTime="0.00" timeLoss="17.11" rerouteNo="0" devices="tripinfo_185" vType="DEFAULT_VEHTYPE" speedFactor="1.18" vaporized=""/>
    <tripinfo id="28" depart="8.00" departLane="6_3way_11to4way_10_0" departPos="5.10" departSpeed="0.00" departDelay="0.22" arrival="82.00" arrivalLane="40_4way_8to4way_14_0" arrivalPos="85.60" arrivalSpeed="13.52" duration="74.00" routeLength="375.13" waitingTime="35.00" waitingCount="1" stopTime="0.00" timeLoss="46.54" rerouteNo="0" devices="tripinfo_28" vType="DEFAULT_VEHTYPE" speedFactor="1.03" vaporized=""/>
    <tripinfo id="63" depart="19.00" departLane="55_4way_8to4way_7_0" departPos="5.10" departSpeed="0.00" departDelay="1.50" arrival="82.00" arrivalLane="36_4way_13to4way_19_0" arrivalPos="85.60" arrivalSpeed="12.20" duration="63.00" routeLength="275.13" waitingTime="28.00" waitingCount="1" stopTime="0.00" timeLoss="41.21" rerouteNo="0" devices="tripinfo_63" vType="DEFAULT_VEHTYPE" speedFactor="0.95" vaporized=""/>
    <tripinfo id="164" depart="49.00" departLane="1_3way_2to3way_1_0" departPos="5.10" departSpeed="0.00" departDelay="3.46" arrival="82.00" arrivalLane="8_3way_6to3way_12_0" arrivalPos="85.60" arrivalSpeed="6.00" duration="33.00" routeLength="377.30" waitingTime="0.00" waitingCount="0" stopTime="0.00" timeLoss="8.46" rerouteNo="0" devices="tripinfo_164" vType="DEFAULT_VEHTYPE" speedFactor="1.11" vaporized=""/>
    <tripinfo id="239" depart="67.00" departLane="12_3way_24to3way_18_0" departPos="5.10" departSpeed="0.00" departDelay="0.63" arrival="83.00" arrivalLane="7_3way_18to3way_12_0" arrivalPos="85.60" arrivalSpeed="13.41" duration="16.00" routeLength="180.50" waitingTime="0.00" waitingCount="0" stopTime="0.00" timeLoss="3.30" rerouteNo="0" devices="tripinfo_239" vType="DEFAULT_VEHTYPE" speedFactor="1.05" vaporized=""/>
    <tripinfo id="43" depart="18.00" departLane="47_4way_20to4way_21_0" departPos="5.10" departSpeed="0.00" departDelay="6.06" arrival="84.00" arrivalLane="4_3way_17to3way_11_0" arrivalPos="85.60" arrivalSpeed="13.21" duration="66.00" routeLength="475.13" waitingTime="19.00" waitingCount="1" stopTime="0.00" timeLoss="30.03" rerouteNo="0" devices="tripinfo_43" vType="DEFAULT_VEHTYPE" speedFactor="0.97" vaporized=""/>