<?xml version="1.0" encoding="UTF-8"?>

<!-- generated on 2023-08-12 07:42:10 by Eclipse SUMO sumo Version 1.12.0
<configuration xmlns:xsi="http://www.w3.org/2001/XMLSchema-instance" xsi:noNamespaceSchemaLocation="http://sumo.dlr.de/xsd/sumoConfiguration.xsd">

    <input>
        <net-file value="../../data_generation/sq.net.xml"/>
        <route-files value="../../data_generation/sq.rou.xml"/>
    </input>

    <output>
        <tripinfo-output value="tripinfo.xml"/>
        <statistic-output value="statistic.xml"/>
    </output>

    <time>
        <begin value="0"/>
        <end value="3600"/>
    </time>

    <processing>
        <time-to-teleport value="-1"/>
    </processing>

    <traci_server>
        <remote-port value="34255"/>
    </traci_server>

    <random_number>
        <seed value="1395"/>
    </random_number>

    <gui_only>
        <gui-settings-file value="../../data_generation/view_HY_0402.xml"/>
    </gui_only>

</configuration>
-->

<tripinfos xmlns:xsi="http://www.w3.org/2001/XMLSchema-instance" xsi:noNamespaceSchemaLocation="http://sumo.dlr.de/xsd/tripinfo_file.xsd">
    <tripinfo id="22" depart="2.00" departLane="478_4way_291to4way_271_0" departPos="5.10" departSpeed="0.00" departDelay="0.62" arrival="12.00" arrivalLane="478_4way_291to4way_271_0" arrivalPos="85.60" arrivalSpeed="13.11" duration="10.00" routeLength="80.50" waitingTime="0.00" waitingCount="0" stopTime="0.00" timeLoss="3.50" rerouteNo="0" devices="tripinfo_22" vType="DEFAULT_VEHTYPE" speedFactor="1.00" vaporized=""/>
    <tripinfo id="9" depart="1.00" departLane="733_4way_76to4way_75_0" departPos="5.10" departSpeed="0.00" departDelay="0.44" arrival="19.00" arrivalLane="731_4way_75to4way_74_0" arrivalPos="85.60" arrivalSpeed="12.37" duration="18.00" routeLength="180.50" waitingTime="0.00" waitingCount="0" stopTime="0.00" timeLoss="3.40" rerouteNo="0" devices="tripinfo_9" vType="DEFAULT_VEHTYPE" speedFactor="0.91" vaporized=""/>
    <tripinfo id="18" depart="2.00" departLane="359_4way_230to4way_210_0" departPos="5.10" departSpeed="0.00" departDelay="0.87" arrival="19.00" arrivalLane="322_4way_210to4way_190_0" arrivalPos="85.60" arrivalSpeed="13.26" duration="17.00" routeLength="180.50" waitingTime="0.00" waitingCount="0" stopTime="0.00" timeLoss="3.38" rerouteNo="0" devices="tripinfo_18" vType="DEFAULT_VEHTYPE" speedFactor="0.96" vaporized=""/>
    <tripinfo id="160" depart="10.00" departLane="90_3way_382to4way_362_0" departPos="5.10" departSpeed="0.00" departDelay="0.00" arrival="20.00" arrivalLane="90_3way_382to4way_362_0" arrivalPos="85.60" arrivalSpeed="12.01" duration="10.00" routeLength="80.50" waitingTime="0.00" waitingCount="0" stopTime="0.00" timeLoss="3.03" rerouteNo="0" devices="tripinfo_160" vType="DEFAULT_VEHTYPE" speedFactor="0.88" vaporized=""/>
    <tripinfo id="167" depart="12.00" departLane="697_4way_54to4way_74_0" departPos="5.10" departSpeed="0.00" departDelay="1.56" arrival="22.00" arrivalLane="697_4way_54to4way_74_0" arrivalPos="85.60" arrivalSpeed="11.56" duration="10.00" routeLength="80.50" waitingTime="0.00" waitingCount="0" stopTime="0.00" timeLoss="2.79" rerouteNo="0" devices="tripinfo_167" vType="DEFAULT_VEHTYPE" speedFactor="0.85" vaporized=""/>
    <tripinfo id="198" depart="13.00" departLane="540_4way_324to4way_304_0" departPos="5.10" departSpeed="0.00" departDelay="0.62" arrival="23.00" arrivalLane="540_4way_324to4way_304_0" arrivalPos="85.60" arrivalSpeed="11.43" duration="10.00" routeLength="80.50" waitingTime="0.00" waitingCount="0" stopTime="0.00" timeLoss="2.78" rerouteNo="0" devices="tripinfo_198" vType="DEFAULT_VEHTYPE" speedFactor="0.87" vaporized=""/>
    <tripinfo id="332" depart="21.00" departLane="542_4way_305to4way_325_0" departPos="5.10" departSpeed="0.00" departDelay="0.25" arrival="32.00" arrivalLane="542_4way_305to4way_325_0" arrivalPos="85.60" arrivalSpeed="11.31" duration="11.00" routeLength="80.50" waitingTime="0.00" waitingCount="0" stopTime="0.00" timeLoss="3.20" rerouteNo="0" devices="tripinfo_332" vType="DEFAULT_VEHTYPE" speedFactor="0.83" vaporized=""/>
    <tripinfo id="118" depart="8.00" departLane="745_4way_87to4way_86_0" departPos="5.10" departSpeed="0.00" departDelay="0.62" arrival="34.00" arrivalLane="159_4way_85to4way_105_0" arrivalPos="85.60" arrivalSpeed="13.54" duration="26.00" routeLength="275.13" waitingTime="0.00" waitingCount="0" stopTime="0.00" timeLoss="5.54" rerouteNo="0" devices="tripinfo_118" vType="DEFAULT_VEHTYPE" speedFactor="1.05" vaporized=""/>
    <tripinfo id="326" depart="21.00" departLane="18_3way_120to4way_121_0" departPos="5.10" departSpeed="0.00" departDelay="0.62" arrival="38.00" arrivalLane="198_4way_121to4way_122_0" arrivalPos="85.60" arrivalSpeed="13.49" duration="17.00" routeLength="180.50" waitingTime="0.00" waitingCount="0" stopTime="0.00" timeLoss="3.60" rerouteNo="0" devices="tripinfo_326" vType="DEFAULT_VEHTYPE" speedFactor="1.00" vaporized=""/>
    <tripinfo id="445" depart="28.00" departLane="465_4way_267to4way_266_0" departPos="5.10" departSpeed="0.00" departDelay="0.19" arrival="38.00" arrivalLane="465_4way_267to4way_266_0" arrivalPos="85.60" arrivalSpeed="13.26" duration="10.00" routeLength="80.50" waitingTime="0.00" waitingCount="0" stopTime="0.00" timeLoss="3.46" rerouteNo="0" devices="tripinfo_445" vType="DEFAULT_VEHTYPE" speedFactor="1.02" vaporized=""/>
    <tripinfo id="203" depart="13.00" departLane="708_4way_62to4way_82_0" departPos="5.10" departSpeed="0.00" departDelay="0.31" arrival="40.00" arrivalLane="742_4way_83to4way_84_0" arrivalPos="85.60" arrivalSpeed="12.24" duration="27.00" routeLength="275.13" waitingTime="0.00" waitingCount="0" stopTime="0.00" timeLoss="5.15" rerouteNo="0" devices="tripinfo_203" vType="DEFAULT_VEHTYPE" speedFactor="0.95" vaporized=""/>
    <tripinfo id="324" depart="21.00" departLane="120_3way_396to4way_376_0" departPos="5.10" departSpeed="0.00" departDelay="0.75" arrival="40.00" arrivalLane="666_4way_376to4way_375_0" arrivalPos="85.60" arrivalSpeed="13.42" duration="19.00" routeLength="175.13" waitingTime="0.00" waitingCount="0" stopTime="0.00" timeLoss="5.65" rerouteNo="0" devices="tripinfo_324" vType="DEFAULT_VEHTYPE" speedFactor="1.05" vaporized=""/>
    <tripinfo id="416" depart="26.00" departLane="551_4way_31to4way_32_0" departPos="5.10" departSpeed="0.00" departDelay="0.00" arrival="43.00" arrivalLane="570_4way_32to4way_33_0" arrivalPos="85.60" arrivalSpeed="14.34" duration="17.00" routeLength="180.50" waitingTime="0.00" waitingCount="0" stopTime="0.00" timeLoss="4.19" rerouteNo="0" devices="tripinfo_416" vType="DEFAULT_VEHTYPE" speedFactor="1.04" vaporized=""/>
    <tripinfo id="610" depart="39.00" departLane="413_4way_238to4way_258_0" departPos="5.10" departSpeed="0.00" departDelay="0.87" arrival="49.00" arrivalLane="413_4way_238to4way_258_0" arrivalPos="85.60" arrivalSpeed="11.98" duration="10.00" routeLength="80.50" waitingTime="0.00" waitingCount="0" stopTime="0.00" timeLoss="2.95" rerouteNo="0" devices="tripinfo_610" vType="DEFAULT_VEHTYPE" speedFactor="0.93" vaporized=""/>
    <tripinfo id="531" depart="34.00" departLane="124_3way_5to3way_4_0" departPos="5.10" departSpeed="0.00" departDelay="0.81" arrival="51.00" arrivalLane="69_3way_4to3way_3_0" arrivalPos="85.60" arrivalSpeed="15.29" duration="17.00" routeLength="180.50" waitingTime="0.00" waitingCount="0" stopTime="0.00" timeLoss="4.56" rerouteNo="0" devices="tripinfo_531" vType="DEFAULT_VEHTYPE" speedFactor="1.11" vaporized=""/>
    <tripinfo id="341" depart="22.00" departLane="730_4way_93to4way_73_0" departPos="5.10" departSpeed="0.00" departDelay="0.69" arrival="60.00" arrivalLane="15_3way_13to3way_12_0" arrivalPos="85.60" arrivalSpeed="15.13" duration="38.00" routeLength="475.13" waitingTime="0.00" waitingCount="0" stopTime="0.00" timeLoss="6.73" rerouteNo="0" devices="tripinfo_341" vType="DEFAULT_VEHTYPE" speedFactor="1.12" vaporized=""/>
    <tripinfo id="533" depart="34.00" departLane="14_4way_118to3way_119_0" departPos="5.10" departSpeed="0.00" departDelay="0.69" arrival="60.00" arrivalLane="138_3way_99to3way_79_0" arrivalPos="85.60" arrivalSpeed="13.86" duration="26.00" routeLength="275.13" waitingTime="0.00" waitingCount="0" stopTime="0.00" timeLoss="6.92" rerouteNo="0" devices="tripinfo_533" vType="DEFAULT_VEHTYPE" speedFactor="1.09" vaporized=""/>
    <tripinfo id="732" depart="46.00" departLane="633_4way_351to4way_352_0" departPos="5.10" departSpeed="0.00" departDelay="0.25" arrival="61.00" arrivalLane="635_4way_352to4way_353_0" arrivalPos="85.60" arrivalSpeed="16.92" duration="15.00" routeLength="180.50" waitingTime="0.00" waitingCount="0" stopTime="0.00" timeLoss="3.81" rerouteNo="0" devices="tripinfo_732" vType="DEFAULT_VEHTYPE" speedFactor="1.22" vaporized=""/>
    <tripinfo id="664" depart="42.00" departLane="702_4way_57to4way_58_0" departPos="5.10" departSpeed="0.00" departDelay="0.50" arrival="66.00" arrivalLane="40_4way_38to3way_18_0" arrivalPos="85.60" arrivalSpeed="15.92" duration="24.00" routeLength="275.13" waitingTime="0.00" waitingCount="0" stopTime="0.00" timeLoss="6.32" rerouteNo="0" devices="tripinfo_664" vType="DEFAULT_VEHTYPE" speedFactor="1.17" vaporized=""/>
    <tripinfo id="906" depart="57.00" departLane="669_4way_58to4way_38_0" departPos="5.10" departSpeed="0.00" departDelay="0.37" arrival="66.00" arrivalLane="669_4way_58to4way_38_0" arrivalPos="85.60" arrivalSpeed="12.76" duration="9.00" routeLength="80.50" waitingTime="0.00" waitingCount="0" stopTime="0.00" timeLoss="2.81" rerouteNo="0" devices="tripinfo_906" vType="DEFAULT_VEHTYPE" speedFactor="0.95" vaporized=""/>
    <tripinfo id="303" depart="19.00" departLane="148_4way_102to4way_103_0" departPos="5.10" departSpeed="0.00" departDelay="0.06" arrival="70.00" arrivalLane="148_4way_102to4way_103_0" arrivalPos="85.60" arrivalSpeed="5.65" duration="51.00" routeLength="80.50" waitingTime="37.00" waitingCount="1" stopTime="0.00" timeLoss="45.17" rerouteNo="0" devices="tripinfo_303" vType="DEFAULT_VEHTYPE" speedFactor="1.02" vaporized=""/>
    <tripinfo id="452" depart="29.00" departLane="755_4way_97to4way_96_0" departPos="5.10" departSpeed="0.00" departDelay="0.75" arrival="70.00" arrivalLane="192_4way_96to4way_116_0" arrivalPos="85.60" arrivalSpeed="6.01" duration="41.00" routeLength="175.13" waitingTime="18.00" waitingCount="1" stopTime="0.00" timeLoss="28.81" rerouteNo="0" devices="tripinfo_452" vType="DEFAULT_VEHTYPE" speedFactor="1.09" vaporized=""/>
    <tripinfo id="675" depart="43.00" departLane="421_4way_263to4way_243_0" departPos="5.10" departSpeed="0.00" departDelay="0.81" arrival="70.00" arrivalLane="343_4way_223to4way_203_0" arrivalPos="85.60" arrivalSpeed="9.94" duration="27.00" routeLength="280.50" waitingTime="0.00" waitingCount="0" stopTime="0.00" timeLoss="4.26" rerouteNo="0" devices="tripinfo_675" vType="DEFAULT_VEHTYPE" speedFactor="0.91" vaporized=""/>
    <tripinfo id="956" depart="60.00" departLane="152_4way_103to4way_123_0" departPos="5.10" departSpeed="0.00" departDelay="0.25" arrival="70.00" arrivalLane="152_4way_103to4way_123_0" arrivalPos="85.60" arrivalSpeed="12.41" duration="10.00" routeLength="80.50" waitingTime="0.00" waitingCount="0" stopTime="0.00" timeLoss="2.99" rerouteNo="0" devices="tripinfo_956" vType="DEFAULT_VEHTYPE" speedFactor="0.94" vaporized=""/>
    <tripinfo id="149" depart="10.00" departLane="739_4way_78to4way_98_0" departPos="5.10" departSpeed="0.00" departDelay="0.69" arrival="71.00" arrivalLane="267_4way_158to4way_178_0" arrivalPos="85.60" arrivalSpeed="5.91" duration="61.00" routeLength="480.50" waitingTime="12.00" waitingCount="1" stopTime="0.00" timeLoss="24.30" rerouteNo="0" devices="tripinfo_149" vType="DEFAULT_VEHTYPE" speedFactor="0.95" vaporized=""/>
    <tripinfo id="284" depart="18.00" departLane="196_4way_138to4way_118_0" departPos="5.10" departSpeed="0.00" departDelay="0.25" arrival="72.00" arrivalLane="187_4way_116to4way_115_0" arrivalPos="85.60" arrivalSpeed="6.95" duration="54.00" routeLength="375.13" waitingTime="18.00" waitingCount="1" stopTime="0.00" timeLoss="29.38" rerouteNo="0" devices="tripinfo_284" vType="DEFAULT_VEHTYPE" speedFactor="1.12" vaporized=""/>
    <tripinfo id="318" depart="20.00" departLane="109_3way_392to3way_391_0" departPos="5.10" departSpeed="0.00" departDelay="0.12" arrival="73.00" arrivalLane="101_3way_389to3way_388_0" arrivalPos="85.60" arrivalSpeed="7.53" duration="53.00" routeLength="380.50" waitingTime="15.00" waitingCount="1" stopTime="0.00" timeLoss="25.70" rerouteNo="0" devices="tripinfo_318" vType="DEFAULT_VEHTYPE" speedFactor="1.01" vaporized=""/>
    <tripinfo id="973" depart="64.00" departLane="69_3way_4to3way_3_0" departPos="5.10" departSpeed="0.00" departDelay="3.19" arrival="74.00" arrivalLane="69_3way_4to3way_3_0" arrivalPos="85.60" arrivalSpeed="12.00" duration="10.00" routeLength="80.50" waitingTime="0.00" waitingCount="0" stopTime="0.00" timeLoss="3.20" rerouteNo="0" devices="tripinfo_973" vType="DEFAULT_VEHTYPE" speedFactor="0.93" vaporized=""/>
    <tripinfo id="351" depart="22.00" departLane="73_3way_339to3way_319_0" departPos="5.10" departSpeed="0.00" departDelay="0.06" arrival="75.00" arrivalLane="67_3way_319to3way_299_0" arrivalPos="85.60" arrivalSpeed="9.82" duration="53.00" routeLength="180.50" waitingTime="28.00" waitingCount="1" stopTime="0.00" timeLoss="37.21" rerouteNo="0" devices="tripinfo_351" vType="DEFAULT_VEHTYPE" speedFactor="0.85" vaporized=""/>
    <tripinfo id="429" depart="27.00" departLane="615_4way_344to4way_343_0" departPos="5.10" departSpeed="0.00" departDelay="0.19" arrival="76.00" arrivalLane="80_4way_341to3way_340_0" arrivalPos="85.60" arrivalSpeed="15.72" duration="49.00" routeLength="380.50" waitingTime="15.00" waitingCount="1" stopTime="0.00" timeLoss="25.45" rerouteNo="0" devices="tripinfo_429" vType="DEFAULT_VEHTYPE" speedFactor="1.16" vaporized=""/>
    <tripinfo id="884" depart="56.00" departLane="315_4way_187to4way_188_0" departPos="5.10" departSpeed="0.00" departDelay="0.75" arrival="76.00" arrivalLane="317_4way_188to4way_189_0" arrivalPos="85.60" arrivalSpeed="10.98" duration="20.00" routeLength="180.50" waitingTime="0.00" waitingCount="0" stopTime="0.00" timeLoss="4.81" rerouteNo="0" devices="tripinfo_884" vType="DEFAULT_VEHTYPE" speedFactor="0.87" vaporized=""/>
    <tripinfo id="27" depart="2.00" departLane="41_3way_180to3way_200_0" departPos="5.10" departSpeed="0.00" departDelay="0.31" arrival="77.00" arrivalLane="54_3way_220to4way_221_0" arrivalPos="85.60" arrivalSpeed="14.26" duration="75.00" routeLength="275.13" waitingTime="46.00" waitingCount="1" stopTime="0.00" timeLoss="54.46" rerouteNo="0" devices="tripinfo_27" vType="DEFAULT_VEHTYPE" speedFactor="1.03" vaporized=""/>
    <tripinfo id="51" depart="4.00" departLane="756_4way_98to4way_97_0" departPos="5.10" departSpeed="0.00" departDelay="0.81" arrival="77.00" arrivalLane="752_4way_94to4way_93_0" arrivalPos="85.60" arrivalSpeed="9.95" duration="73.00" routeLength="480.50" waitingTime="15.00" waitingCount="1" stopTime="0.00" timeLoss="25.97" rerouteNo="0" devices="tripinfo_51" vType="DEFAULT_VEHTYPE" speedFactor="0.74" vaporized=""/>
    <tripinfo id="138" depart="9.00" departLane="406_4way_234to4way_254_0" departPos="5.10" departSpeed="0.00" departDelay="0.37" arrival="77.00" arrivalLane="487_4way_276to4way_277_0" arrivalPos="85.60" arrivalSpeed="13.69" duration="68.00" routeLength="475.13" waitingTime="20.00" waitingCount="1" stopTime="0.00" timeLoss="32.61" rerouteNo="0" devices="tripinfo_138" vType="DEFAULT_VEHTYPE" speedFactor="1.00" vaporized=""/>
    <tripinfo id="158" depart="10.00" departLane="166_4way_109to4way_108_0" departPos="5.10" departSpeed="0.00" departDelay="0.12" arrival="77.00" arrivalLane="160_4way_107to4way_106_0" arrivalPos="85.60" arrivalSpeed="12.42" duration="67.00" routeLength="280.50" waitingTime="37.00" waitingCount="1" stopTime="0.00" timeLoss="45.45" rerouteNo="0" devices="tripinfo_158" vType="DEFAULT_VEHTYPE" speedFactor="0.96" vaporized=""/>
    <tripinfo id="189" depart="12.00" departLane="512_4way_30to4way_29_0" departPos="5.10" departSpeed="0.00" departDelay="0.19" arrival="77.00" arrivalLane="474_4way_27to4way_47_0" arrivalPos="85.60" arrivalSpeed="12.35" duration="65.00" routeLength="375.13" waitingTime="26.00" waitingCount="1" stopTime="0.00" timeLoss="34.86" rerouteNo="0" devices="tripinfo_189" vType="DEFAULT_VEHTYPE" speedFactor="0.92" vaporized=""/>
    <tripinfo id="360" depart="23.00" departLane="298_4way_177to4way_176_0" departPos="5.10" departSpeed="0.00" departDelay="0.50" arrival="77.00" arrivalLane="328_4way_193to4way_213_0" arrivalPos="85.60" arrivalSpeed="13.06" duration="54.00" routeLength="575.13" waitingTime="0.00" waitingCount="0" stopTime="0.00" timeLoss="11.88" rerouteNo="0" devices="tripinfo_360" vType="DEFAULT_VEHTYPE" speedFactor="1.01" vaporized=""/>
    <tripinfo id="388" depart="25.00" departLane="582_4way_327to4way_326_0" departPos="5.10" departSpeed="0.00" departDelay="0.75" arrival="77.00" arrivalLane="622_4way_346to4way_366_0" arrivalPos="85.60" arrivalSpeed="12.38" duration="52.00" routeLength="275.13" waitingTime="20.00" waitingCount="1" stopTime="0.00" timeLoss="30.33" rerouteNo="0" devices="tripinfo_388" vType="DEFAULT_VEHTYPE" speedFactor="0.95" vaporized=""/>
    <tripinfo id="421" depart="27.00" departLane="116_4way_374to3way_394_0" departPos="5.10" departSpeed="0.00" departDelay="0.69" arrival="77.00" arrivalLane="111_3way_393to3way_392_0" arrivalPos="85.60" arrivalSpeed="12.69" duration="50.00" routeLength="280.29" waitingTime="18.00" waitingCount="1" stopTime="0.00" timeLoss="28.31" rerouteNo="0" devices="tripinfo_421" vType="DEFAULT_VEHTYPE" speedFactor="0.99" vaporized=""/>
    <tripinfo id="493" depart="31.00" departLane="261_4way_155to4way_156_0" departPos="5.10" departSpeed="0.00" departDelay="0.19" arrival="77.00" arrivalLane="191_4way_136to4way_116_0" arrivalPos="85.60" arrivalSpeed="12.89" duration="46.00" routeLength="275.13" waitingTime="14.00" waitingCount="1" stopTime="0.00" timeLoss="23.54" rerouteNo="0" devices="tripinfo_493" vType="DEFAULT_VEHTYPE" speedFactor="0.94" vaporized=""/>
    <tripinfo id="115" depart="8.00" departLane="455_4way_261to4way_262_0" departPos="5.10" departSpeed="0.00" departDelay="0.81" arrival="78.00" arrivalLane="380_4way_242to4way_222_0" arrivalPos="85.60" arrivalSpeed="12.37" duration="70.00" routeLength="275.13" waitingTime="36.00" waitingCount="1" stopTime="0.00" timeLoss="47.17" rerouteNo="0" devices="tripinfo_115" vType="DEFAULT_VEHTYPE" speedFactor="0.92" vaporized=""/>
    <tripinfo id="780" depart="49.00" departLane="693_4way_72to4way_52_0" departPos="5.10" departSpeed="0.00" departDelay="0.25" arrival="78.00" arrivalLane="690_4way_52to4way_51_0" arrivalPos="85.60" arrivalSpeed="10.55" duration="29.00" routeLength="175.13" waitingTime="5.00" waitingCount="1" stopTime="0.00" timeLoss="12.54" rerouteNo="0" devices="tripinfo_780" vType="DEFAULT_VEHTYPE" speedFactor="0.82" vaporized=""/>
    <tripinfo id="397" depart="25.00" departLane="372_4way_217to4way_218_0" departPos="5.10" departSpeed="0.00" departDelay="0.19" arrival="79.00" arrivalLane="337_4way_218to4way_198_0" arrivalPos="85.60" arrivalSpeed="13.40" duration="54.00" routeLength="175.13" waitingTime="30.00" waitingCount="1" stopTime="0.00" timeLoss="40.92" rerouteNo="0" devices="tripinfo_397" vType="DEFAULT_VEHTYPE" speedFactor="1.05" vaporized=""/>
    <tripinfo id="712" depart="45.00" departLane="418_4way_242to4way_243_0" departPos="5.10" departSpeed="0.00" departDelay="0.50" arrival="81.00" arrivalLane="382_4way_243to4way_223_0" arrivalPos="85.60" arrivalSpeed="13.81" duration="36.00" routeLength="175.13" waitingTime="14.00" waitingCount="1" stopTime="0.00" timeLoss="23.17" rerouteNo="0" devices="tripinfo_712" vType="DEFAULT_VEHTYPE" speedFactor="1.03" vaporized=""/>
    <tripinfo id="891" depart="59.00" departLane="51_3way_239to3way_219_0" departPos="5.10" departSpeed="0.00" departDelay="3.31" arrival="81.00" arrivalLane="52_3way_219to4way_218_0" arrivalPos="85.60" arrivalSpeed="12.30" duration="22.00" routeLength="175.13" waitingTime="0.00" waitingCount="0" stopTime="0.00" timeLoss="6.23" rerouteNo="0" devices="tripinfo_891" vType="DEFAULT_VEHTYPE" speedFactor="0.90" vaporized=""/>
    <tripinfo id="357" depart="23.00" departLane="34_4way_161to3way_160_0" departPos="5.10" departSpeed="0.00" departDelay="0.69" arrival="82.00" arrivalLane="53_3way_220to3way_240_0" arrivalPos="85.60" arrivalSpeed="13.95" duration="59.00" routeLength="475.13" waitingTime="9.00" waitingCount="1" stopTime="0.00" timeLoss="24.57" rerouteNo="0" devices="tripinfo_357" vType="DEFAULT_VEHTYPE" speedFactor="1.04" vaporized=""/>
    <tripinfo id="684" depart="43.00" departLane="360_4way_211to4way_212_0" departPos="5.10" departSpeed="0.00" departDelay="0.25" arrival="82.00" arrivalLane="330_4way_214to4way_194_0" arrivalPos="85.60" arrivalSpeed="12.80" duration="39.00" routeLength="375.13" waitingTime="0.00" waitingCount="0" stopTime="0.00" timeLoss="11.24" rerouteNo="0" devices="tripinfo_684" vType="DEFAULT_VEHTYPE" speedFactor="1.01" vaporized=""/>
    <tripinfo id="518" depart="33.00" departLane="536_4way_322to4way_302_0" departPos="5.10" departSpeed="0.00" departDelay="0.62" arrival="83.00" arrivalLane="380_4way_242to4way_222_0" arrivalPos="85.60" arrivalSpeed="14.95" duration="50.00" routeLength="480.50" waitingTime="9.00" waitingCount="1" stopTime="0.00" timeLoss="19.74" rerouteNo="0" devices="tripinfo_518" vType="DEFAULT_VEHTYPE" speedFactor="1.17" vaporized=""/>
    <tripinfo id="741" depart="47.00" departLane="40_4way_38to3way_18_0" departPos="5.10" departSpeed="0.00" departDelay="0.69" arrival="83.00" arrivalLane="31_3way_17to3way_16_0" arrivalPos="85.60" arrivalSpeed="15.21" duration="36.00" routeLength="275.13" waitingTime="2.00" waitingCount="1" stopTime="0.00" timeLoss="17.26" rerouteNo="0" devices="tripinfo_741" vType="DEFAULT_VEHTYPE" speedFactor="1.12" vaporized=""/>
    <tripinfo id="1171" depart="74.00" departLane="476_4way_270to4way_290_0" departPos="5.10" departSpeed="0.00" departDelay="0.81" arrival="83.00" arrivalLane="476_4way_270to4way_290_0" arrivalPos="85.60" arrivalSpeed="12.91" duration="9.00" routeLength="80.50" waitingTime="0.00" waitingCount="0" stopTime="0.00" timeLoss="2.64" rerouteNo="0" devices="tripinfo_1171" vType="DEFAULT_VEHTYPE" speedFactor="0.97" vaporized=""/>
    <tripinfo id="210" depart="14.00" departLane="530_4way_318to4way_298_0" departPos="5.10" departSpeed="0.00" departDelay="0.87" arrival="84.00" arrivalLane="302_4way_198to4way_178_0" arrivalPos="85.60" arrivalSpeed="15.02" duration="70.00" routeLength="680.50" waitingTime="15.00" waitingCount="1" stopTime="0.00" timeLoss="28.90" rerouteNo="0" devices="tripinfo_210" vType="DEFAULT_VEHTYPE" speedFactor="1.20" vaporized=""/>
    <tripinfo id="418" depart="27.00" departLane="131_3way_59to4way_58_0" departPos="5.10" departSpeed="0.00" departDelay="0.87" arrival="84.00" arrivalLane="703_4way_57to4way_77_0" arrivalPos="85.60" arrivalSpeed="10.20" duration="57.00" routeLength="275.13" waitingTime="21.00" waitingCount="1" stopTime="0.00" timeLoss="30.84" rerouteNo="0" devices="tripinfo_418" vType="DEFAULT_VEHTYPE" speedFactor="0.79" vaporized=""/>
    <tripinfo id="887" depart="56.00" departLane="8_3way_100to3way_80_0" departPos="5.10" departSpeed="0.00" departDelay="0.56" arrival="84.00" arrivalLane="126_3way_60to3way_40_0" arrivalPos="85.60" arrivalSpeed="13.03" duration="28.00" routeLength="280.50" waitingTime="0.00" waitingCount="0" stopTime="0.00" timeLoss="6.86" rerouteNo="0" devices="tripinfo_887" vType="DEFAULT_VEHTYPE" speedFactor="0.96" vaporized=""/>
    <tripinfo id="251" depart="16.00" departLane="362_4way_213to4way_212_0" departPos="5.10" departSpeed="0.00" departDelay="0.31" arrival="85.00" arrivalLane="352_4way_209to4way_208_0" arrivalPos="85.60" arrivalSpeed="12.57" duration="69.00" routeLength="480.50" waitingTime="22.00" waitingCount="1" stopTime="0.00" timeLoss="33.06" rerouteNo="0" devices="tripinfo_251" vType="DEFAULT_VEHTYPE" speedFactor="0.99" vaporized=""/>
    <tripinfo id="1083" depart="68.00" departLane="162_4way_106to4way_86_0" departPos="5.10" departSpeed="0.00" departDelay="0.31" arrival="85.00" arrivalLane="716_4way_86to4way_66_0" arrivalPos="85.60" arrivalSpeed="14.26" duration="17.00" routeLength="180.50" waitingTime="0.00" waitingCount="0" stopTime="0.00" timeLoss="4.03" rerouteNo="0" devices="tripinfo_1083" vType="DEFAULT_VEHTYPE" speedFactor="1.07" vaporized=""/>
    <tripinfo id="1195" depart="75.00" departLane="601_4way_354to4way_334_0" departPos="5.10" departSpeed="0.00" departDelay="0.31" arrival="85.00" arrivalLane="601_4way_354to4way_334_0" arrivalPos="85.60" arrivalSpeed="12.54" duration="10.00" routeLength="80.50" waitingTime="0.00" waitingCount="0" stopTime="0.00" timeLoss="2.83" rerouteNo="0" devices="tripinfo_1195" vType="DEFAULT_VEHTYPE" speedFactor="0.93" vaporized=""/>
    <tripinfo id="370" depart="24.00" departLane="232_4way_158to4way_138_0" departPos="5.10" departSpeed="0.00" departDelay="0.87" arrival="86.00" arrivalLane="106_4way_38to3way_39_0" arrivalPos="85.60" arrivalSpeed="12.30" duration="62.00" routeLength="680.30" waitingTime="0.00" waitingCount="0" stopTime="0.00" timeLoss="9.36" rerouteNo="0" devices="tripinfo_370" vType="DEFAULT_VEHTYPE" speedFactor="0.96" vaporized=""/>
    <tripinfo id="658" depart="42.00" departLane="193_4way_118to4way_117_0" departPos="5.10" departSpeed="0.00" departDelay="0.87" arrival="87.00" arrivalLane="264_4way_156to4way_176_0" arrivalPos="85.60" arrivalSpeed="15.21" duration="45.00" routeLength="475.13" waitingTime="0.00" waitingCount="0" stopTime="0.00" timeLoss="13.07" rerouteNo="0" devices="tripinfo_658" vType="DEFAULT_VEHTYPE" speedFactor="1.12" vaporized=""/>
    <tripinfo id="316" depart="20.00" departLane="315_4way_188to4way_187_0" departPos="5.10" departSpeed="0.00" departDelay="0.25" arrival="88.00" arrivalLane="314_4way_186to4way_206_0" arrivalPos="85.60" arrivalSpeed="11.96" duration="68.00" routeLength="275.13" waitingTime="35.00" waitingCount="1" stopTime="0.00" timeLoss="44.72" rerouteNo="0" devices="tripinfo_316" vType="DEFAULT_VEHTYPE" speedFactor="0.89" vaporized=""/>
    <tripinfo id="762" depart="48.00" departLane="666_4way_376to4way_375_0" departPos="5.10" departSpeed="0.00" departDelay="0.37" arrival="88.00" arrivalLane="664_4way_374to4way_373_0" arrivalPos="85.60" arrivalSpeed="4.47" duration="40.00" routeLength="280.50" waitingTime="7.00" waitingCount="1" stopTime="0.00" timeLoss="20.86" rerouteNo="0" devices="tripinfo_762" vType="DEFAULT_VEHTYPE" speedFactor="1.07" vaporized=""/>
    <tripinfo id="959" depart="60.00" departLane="92_3way_383to4way_363_0" departPos="5.10" departSpeed="0.00" departDelay="0.06" arrival="88.00" arrivalLane="613_4way_343to4way_342_0" arrivalPos="85.60" arrivalSpeed="11.75" duration="28.00" routeLength="275.13" waitingTime="0.00" waitingCount="0" stopTime="0.00" timeLoss="5.52" rerouteNo="0" devices="tripinfo_959" vType="DEFAULT_VEHTYPE" speedFactor="0.92" vaporized=""/>
    <tripinfo id="1259" depart="79.00" departLane="152_4way_123to4way_103_0" departPos="5.10" departSpeed="0.00" departDelay="0.31" arrival="89.00" arrivalLane="152_4way_123to4way_103_0" arrivalPos="85.60" arrivalSpeed="11.58" duration="10.00" routeLength="80.50" waitingTime="0.00" waitingCount="0" stopTime="0.00" timeLoss="3.02" rerouteNo="0" devices="tripinfo_1259" vType="DEFAULT_VEHTYPE" speedFactor="0.88" vaporized=""/>
    <tripinfo id="325" depart="21.00" departLane="547_4way_309to4way_308_0" departPos="5.10" departSpeed="0.00" departDelay="0.69" arrival="91.00" arrivalLane="624_4way_347to4way_367_0" arrivalPos="85.60" arrivalSpeed="13.42" duration="70.00" routeLength="475.13" waitingTime="25.00" waitingCount="1" stopTime="0.00" timeLoss="35.49" rerouteNo="0" devices="tripinfo_325" vType="DEFAULT_VEHTYPE" speedFactor="1.01" vaporized=""/>
    <tripinfo id="356" depart="23.00" departLane="473_4way_27to4way_28_0" departPos="5.10" departSpeed="0.00" departDelay="0.75" arrival="91.00" arrivalLane="590_4way_33to4way_34_0" arrivalPos="85.60" arrivalSpeed="14.50" duration="68.00" routeLength="680.50" waitingTime="11.00" waitingCount="1" stopTime="0.00" timeLoss="21.48" rerouteNo="0" devices="tripinfo_356" vType="DEFAULT_VEHTYPE" speedFactor="1.06" vaporized=""/>
    <tripinfo id="1138" depart="72.00" departLane="583_4way_326to4way_346_0" departPos="5.10" departSpeed="0.00" departDelay="0.87" arrival="91.00" arrivalLane="622_4way_346to4way_366_0" arrivalPos="85.60" arrivalSpeed="10.95" duration="19.00" routeLength="180.50" waitingTime="0.00" waitingCount="0" stopTime="0.00" timeLoss="3.26" rerouteNo="0" devices="tripinfo_1138" vType="DEFAULT_VEHTYPE" speedFactor="0.83" vaporized=""/>
    <tripinfo id="439" depart="28.00" departLane="695_4way_53to4way_73_0" departPos="5.10" departSpeed="0.00" departDelay="0.56" arrival="92.00" arrivalLane="735_4way_76to4way_77_0" arrivalPos="85.60" arrivalSpeed="13.88" duration="64.00" routeLength="475.13" waitingTime="16.00" waitingCount="1" stopTime="0.00" timeLoss="28.50" rerouteNo="0" devices="tripinfo_439" vType="DEFAULT_VEHTYPE" speedFactor="1.01" vaporized=""/>
    <tripinfo id="559" depart="35.00" departLane="665_4way_374to4way_375_0" departPos="5.10" departSpeed="0.00" departDelay="0.06" arrival="92.00" arrivalLane="644_4way_376to4way_356_0" arrivalPos="85.60" arrivalSpeed="11.57" duration="57.00" routeLength="275.13" waitingTime="22.00" waitingCount="1" stopTime="0.00" timeLoss="32.08" rerouteNo="0" devices="tripinfo_559" vType="DEFAULT_VEHTYPE" speedFactor="0.85" vaporized=""/>