<?xml version="1.0" encoding="UTF-8"?>

<!-- generated on 2023-08-10 09:54:24 by Eclipse SUMO sumo Version 1.12.0
<configuration xmlns:xsi="http://www.w3.org/2001/XMLSchema-instance" xsi:noNamespaceSchemaLocation="http://sumo.dlr.de/xsd/sumoConfiguration.xsd">

    <input>
        <net-file value="../../data_generation/sq.net.xml"/>
        <route-files value="../../data_generation/sq.rou.xml"/>
    </input>

    <output>
        <tripinfo-output value="tripinfo.xml"/>
        <statistic-output value="statistic.xml"/>
    </output>

    <time>
        <begin value="0"/>
        <end value="3600"/>
    </time>

    <processing>
        <time-to-teleport value="-1"/>
    </processing>

    <traci_server>
        <remote-port value="57563"/>
    </traci_server>

    <random_number>
        <seed value="1395"/>
    </random_number>

    <gui_only>
        <gui-settings-file value="../../data_generation/view_HY_0402.xml"/>
    </gui_only>

</configuration>
-->

<tripinfos xmlns:xsi="http://www.w3.org/2001/XMLSchema-instance" xsi:noNamespaceSchemaLocation="http://sumo.dlr.de/xsd/tripinfo_file.xsd">
    <tripinfo id="22" depart="2.00" departLane="478_4way_291to4way_271_0" departPos="5.10" departSpeed="0.00" departDelay="0.62" arrival="12.00" arrivalLane="478_4way_291to4way_271_0" arrivalPos="85.60" arrivalSpeed="13.11" duration="10.00" routeLength="80.50" waitingTime="0.00" waitingCount="0" stopTime="0.00" timeLoss="3.50" rerouteNo="0" devices="tripinfo_22" vType="DEFAULT_VEHTYPE" speedFactor="1.00" vaporized=""/>
    <tripinfo id="160" depart="10.00" departLane="90_3way_382to4way_362_0" departPos="5.10" departSpeed="0.00" departDelay="0.00" arrival="20.00" arrivalLane="90_3way_382to4way_362_0" arrivalPos="85.60" arrivalSpeed="11.09" duration="10.00" routeLength="80.50" waitingTime="0.00" waitingCount="0" stopTime="0.00" timeLoss="2.81" rerouteNo="0" devices="tripinfo_160" vType="DEFAULT_VEHTYPE" speedFactor="0.88" vaporized=""/>
    <tripinfo id="167" depart="11.00" departLane="697_4way_54to4way_74_0" departPos="5.10" departSpeed="0.00" departDelay="0.56" arrival="21.00" arrivalLane="697_4way_54to4way_74_0" arrivalPos="85.60" arrivalSpeed="11.26" duration="10.00" routeLength="80.50" waitingTime="0.00" waitingCount="0" stopTime="0.00" timeLoss="2.94" rerouteNo="0" devices="tripinfo_167" vType="DEFAULT_VEHTYPE" speedFactor="0.85" vaporized=""/>
    <tripinfo id="18" depart="5.00" departLane="359_4way_230to4way_210_0" departPos="5.10" departSpeed="0.00" departDelay="3.87" arrival="22.00" arrivalLane="322_4way_210to4way_190_0" arrivalPos="85.60" arrivalSpeed="12.39" duration="17.00" routeLength="180.50" waitingTime="0.00" waitingCount="0" stopTime="0.00" timeLoss="3.36" rerouteNo="0" devices="tripinfo_18" vType="DEFAULT_VEHTYPE" speedFactor="0.96" vaporized=""/>
    <tripinfo id="198" depart="13.00" departLane="540_4way_324to4way_304_0" departPos="5.10" departSpeed="0.00" departDelay="0.62" arrival="23.00" arrivalLane="540_4way_324to4way_304_0" arrivalPos="85.60" arrivalSpeed="11.97" duration="10.00" routeLength="80.50" waitingTime="0.00" waitingCount="0" stopTime="0.00" timeLoss="2.79" rerouteNo="0" devices="tripinfo_198" vType="DEFAULT_VEHTYPE" speedFactor="0.87" vaporized=""/>
    <tripinfo id="27" depart="2.00" departLane="41_3way_180to3way_200_0" departPos="5.10" departSpeed="0.00" departDelay="0.31" arrival="28.00" arrivalLane="54_3way_220to4way_221_0" arrivalPos="85.60" arrivalSpeed="12.99" duration="26.00" routeLength="275.13" waitingTime="0.00" waitingCount="0" stopTime="0.00" timeLoss="5.72" rerouteNo="0" devices="tripinfo_27" vType="DEFAULT_VEHTYPE" speedFactor="1.03" vaporized=""/>
    <tripinfo id="303" depart="19.00" departLane="148_4way_102to4way_103_0" departPos="5.10" departSpeed="0.00" departDelay="0.06" arrival="28.00" arrivalLane="148_4way_102to4way_103_0" arrivalPos="85.60" arrivalSpeed="13.76" duration="9.00" routeLength="80.50" waitingTime="0.00" waitingCount="0" stopTime="0.00" timeLoss="3.16" rerouteNo="0" devices="tripinfo_303" vType="DEFAULT_VEHTYPE" speedFactor="1.02" vaporized=""/>
    <tripinfo id="332" depart="24.00" departLane="542_4way_305to4way_325_0" departPos="5.10" departSpeed="0.00" departDelay="3.25" arrival="34.00" arrivalLane="542_4way_305to4way_325_0" arrivalPos="85.60" arrivalSpeed="10.65" duration="10.00" routeLength="80.50" waitingTime="0.00" waitingCount="0" stopTime="0.00" timeLoss="2.79" rerouteNo="0" devices="tripinfo_332" vType="DEFAULT_VEHTYPE" speedFactor="0.83" vaporized=""/>
    <tripinfo id="445" depart="28.00" departLane="465_4way_267to4way_266_0" departPos="5.10" departSpeed="0.00" departDelay="0.19" arrival="37.00" arrivalLane="465_4way_267to4way_266_0" arrivalPos="85.60" arrivalSpeed="13.53" duration="9.00" routeLength="80.50" waitingTime="0.00" waitingCount="0" stopTime="0.00" timeLoss="2.86" rerouteNo="0" devices="tripinfo_445" vType="DEFAULT_VEHTYPE" speedFactor="1.02" vaporized=""/>
    <tripinfo id="324" depart="21.00" departLane="120_3way_396to4way_376_0" departPos="5.10" departSpeed="0.00" departDelay="0.75" arrival="39.00" arrivalLane="666_4way_376to4way_375_0" arrivalPos="85.60" arrivalSpeed="13.74" duration="18.00" routeLength="175.13" waitingTime="0.00" waitingCount="0" stopTime="0.00" timeLoss="5.33" rerouteNo="0" devices="tripinfo_324" vType="DEFAULT_VEHTYPE" speedFactor="1.05" vaporized=""/>
    <tripinfo id="351" depart="22.00" departLane="73_3way_339to3way_319_0" departPos="5.10" departSpeed="0.00" departDelay="0.06" arrival="41.00" arrivalLane="67_3way_319to3way_299_0" arrivalPos="85.60" arrivalSpeed="10.77" duration="19.00" routeLength="180.50" waitingTime="0.00" waitingCount="0" stopTime="0.00" timeLoss="3.46" rerouteNo="0" devices="tripinfo_351" vType="DEFAULT_VEHTYPE" speedFactor="0.85" vaporized=""/>
    <tripinfo id="156" depart="10.00" departLane="81_3way_379to3way_359_0" departPos="5.10" departSpeed="0.00" departDelay="0.25" arrival="44.00" arrivalLane="67_3way_319to3way_299_0" arrivalPos="85.60" arrivalSpeed="11.50" duration="34.00" routeLength="380.50" waitingTime="0.00" waitingCount="0" stopTime="0.00" timeLoss="3.77" rerouteNo="0" devices="tripinfo_156" vType="DEFAULT_VEHTYPE" speedFactor="0.91" vaporized=""/>
    <tripinfo id="610" depart="39.00" departLane="413_4way_238to4way_258_0" departPos="5.10" departSpeed="0.00" departDelay="0.87" arrival="48.00" arrivalLane="413_4way_238to4way_258_0" arrivalPos="85.60" arrivalSpeed="12.23" duration="9.00" routeLength="80.50" waitingTime="0.00" waitingCount="0" stopTime="0.00" timeLoss="2.76" rerouteNo="0" devices="tripinfo_610" vType="DEFAULT_VEHTYPE" speedFactor="0.93" vaporized=""/>
    <tripinfo id="7" depart="1.00" departLane="77_3way_359to3way_339_0" departPos="5.10" departSpeed="0.00" departDelay="0.56" arrival="50.00" arrivalLane="55_3way_259to3way_239_0" arrivalPos="85.60" arrivalSpeed="12.33" duration="49.00" routeLength="580.50" waitingTime="0.00" waitingCount="0" stopTime="0.00" timeLoss="5.06" rerouteNo="0" devices="tripinfo_7" vType="DEFAULT_VEHTYPE" speedFactor="0.95" vaporized=""/>
    <tripinfo id="531" depart="34.00" departLane="124_3way_5to3way_4_0" departPos="5.10" departSpeed="0.00" departDelay="0.81" arrival="50.00" arrivalLane="69_3way_4to3way_3_0" arrivalPos="85.60" arrivalSpeed="14.17" duration="16.00" routeLength="180.50" waitingTime="0.00" waitingCount="0" stopTime="0.00" timeLoss="4.04" rerouteNo="0" devices="tripinfo_531" vType="DEFAULT_VEHTYPE" speedFactor="1.11" vaporized=""/>
    <tripinfo id="149" depart="10.00" departLane="739_4way_78to4way_98_0" departPos="5.10" departSpeed="0.00" departDelay="0.69" arrival="52.00" arrivalLane="267_4way_158to4way_178_0" arrivalPos="85.60" arrivalSpeed="12.69" duration="42.00" routeLength="480.50" waitingTime="0.00" waitingCount="0" stopTime="0.00" timeLoss="4.96" rerouteNo="0" devices="tripinfo_149" vType="DEFAULT_VEHTYPE" speedFactor="0.95" vaporized=""/>
    <tripinfo id="163" depart="11.00" departLane="179_4way_132to4way_112_0" departPos="5.10" departSpeed="0.00" departDelay="0.81" arrival="52.00" arrivalLane="571_4way_52to4way_32_0" arrivalPos="85.60" arrivalSpeed="11.85" duration="41.00" routeLength="480.50" waitingTime="0.00" waitingCount="0" stopTime="0.00" timeLoss="4.20" rerouteNo="0" devices="tripinfo_163" vType="DEFAULT_VEHTYPE" speedFactor="0.94" vaporized=""/>
    <tripinfo id="318" depart="20.00" departLane="109_3way_392to3way_391_0" departPos="5.10" departSpeed="0.00" departDelay="0.12" arrival="52.00" arrivalLane="101_3way_389to3way_388_0" arrivalPos="85.60" arrivalSpeed="13.71" duration="32.00" routeLength="380.50" waitingTime="0.00" waitingCount="0" stopTime="0.00" timeLoss="4.02" rerouteNo="0" devices="tripinfo_318" vType="DEFAULT_VEHTYPE" speedFactor="1.01" vaporized=""/>
    <tripinfo id="371" depart="24.00" departLane="47_3way_40to3way_20_0" departPos="5.10" departSpeed="0.00" departDelay="0.81" arrival="59.00" arrivalLane="1_3way_1to3way_2_0" arrivalPos="85.60" arrivalSpeed="12.02" duration="35.00" routeLength="383.70" waitingTime="0.00" waitingCount="0" stopTime="0.00" timeLoss="4.04" rerouteNo="0" devices="tripinfo_371" vType="DEFAULT_VEHTYPE" speedFactor="0.92" vaporized=""/>
    <tripinfo id="210" depart="14.00" departLane="530_4way_318to4way_298_0" departPos="5.10" departSpeed="0.00" departDelay="0.87" arrival="60.00" arrivalLane="302_4way_198to4way_178_0" arrivalPos="85.60" arrivalSpeed="16.57" duration="46.00" routeLength="680.50" waitingTime="0.00" waitingCount="0" stopTime="0.00" timeLoss="4.97" rerouteNo="0" devices="tripinfo_210" vType="DEFAULT_VEHTYPE" speedFactor="1.20" vaporized=""/>
    <tripinfo id="126" depart="8.00" departLane="328_4way_193to4way_213_0" departPos="5.10" departSpeed="0.00" departDelay="0.12" arrival="66.00" arrivalLane="560_4way_313to4way_333_0" arrivalPos="85.60" arrivalSpeed="13.23" duration="58.00" routeLength="680.50" waitingTime="0.00" waitingCount="0" stopTime="0.00" timeLoss="8.64" rerouteNo="0" devices="tripinfo_126" vType="DEFAULT_VEHTYPE" speedFactor="1.01" vaporized=""/>
    <tripinfo id="906" depart="57.00" departLane="669_4way_58to4way_38_0" departPos="5.10" departSpeed="0.00" departDelay="0.37" arrival="67.00" arrivalLane="669_4way_58to4way_38_0" arrivalPos="85.60" arrivalSpeed="11.97" duration="10.00" routeLength="80.50" waitingTime="0.00" waitingCount="0" stopTime="0.00" timeLoss="3.33" rerouteNo="0" devices="tripinfo_906" vType="DEFAULT_VEHTYPE" speedFactor="0.95" vaporized=""/>
    <tripinfo id="37" depart="3.00" departLane="27_3way_16to3way_15_0" departPos="5.10" departSpeed="0.00" departDelay="0.69" arrival="68.00" arrivalLane="183_4way_93to4way_113_0" arrivalPos="85.60" arrivalSpeed="12.68" duration="65.00" routeLength="775.13" waitingTime="0.00" waitingCount="0" stopTime="0.00" timeLoss="7.19" rerouteNo="0" devices="tripinfo_37" vType="DEFAULT_VEHTYPE" speedFactor="0.99" vaporized=""/>
    <tripinfo id="956" depart="60.00" departLane="152_4way_103to4way_123_0" departPos="5.10" departSpeed="0.00" departDelay="0.25" arrival="69.00" arrivalLane="152_4way_103to4way_123_0" arrivalPos="85.60" arrivalSpeed="12.17" duration="9.00" routeLength="80.50" waitingTime="0.00" waitingCount="0" stopTime="0.00" timeLoss="2.34" rerouteNo="0" devices="tripinfo_956" vType="DEFAULT_VEHTYPE" speedFactor="0.94" vaporized=""/>
    <tripinfo id="675" depart="43.00" departLane="421_4way_263to4way_243_0" departPos="5.10" departSpeed="0.00" departDelay="0.81" arrival="70.00" arrivalLane="343_4way_223to4way_203_0" arrivalPos="85.60" arrivalSpeed="12.33" duration="27.00" routeLength="280.50" waitingTime="0.00" waitingCount="0" stopTime="0.00" timeLoss="4.24" rerouteNo="0" devices="tripinfo_675" vType="DEFAULT_VEHTYPE" speedFactor="0.91" vaporized=""/>
    <tripinfo id="518" depart="33.00" departLane="536_4way_322to4way_302_0" departPos="5.10" departSpeed="0.00" departDelay="0.62" arrival="71.00" arrivalLane="380_4way_242to4way_222_0" arrivalPos="85.60" arrivalSpeed="7.88" duration="38.00" routeLength="480.50" waitingTime="0.00" waitingCount="0" stopTime="0.00" timeLoss="8.27" rerouteNo="0" devices="tripinfo_518" vType="DEFAULT_VEHTYPE" speedFactor="1.17" vaporized=""/>
    <tripinfo id="93" depart="8.00" departLane="628_4way_369to4way_349_0" departPos="5.10" departSpeed="0.00" departDelay="2.19" arrival="72.00" arrivalLane="547_4way_309to4way_308_0" arrivalPos="85.60" arrivalSpeed="7.34" duration="64.00" routeLength="375.13" waitingTime="22.00" waitingCount="1" stopTime="0.00" timeLoss="36.59" rerouteNo="0" devices="tripinfo_93" vType="DEFAULT_VEHTYPE" speedFactor="1.00" vaporized=""/>
    <tripinfo id="431" depart="27.00" departLane="275_4way_184to4way_164_0" departPos="5.10" departSpeed="0.00" departDelay="0.06" arrival="73.00" arrivalLane="151_4way_104to4way_103_0" arrivalPos="85.60" arrivalSpeed="7.33" duration="46.00" routeLength="475.13" waitingTime="0.00" waitingCount="0" stopTime="0.00" timeLoss="11.40" rerouteNo="0" devices="tripinfo_431" vType="DEFAULT_VEHTYPE" speedFactor="1.01" vaporized=""/>
    <tripinfo id="780" depart="49.00" departLane="693_4way_72to4way_52_0" departPos="5.10" departSpeed="0.00" departDelay="0.25" arrival="73.00" arrivalLane="690_4way_52to4way_51_0" arrivalPos="85.60" arrivalSpeed="10.51" duration="24.00" routeLength="175.13" waitingTime="0.00" waitingCount="0" stopTime="0.00" timeLoss="6.72" rerouteNo="0" devices="tripinfo_780" vType="DEFAULT_VEHTYPE" speedFactor="0.82" vaporized=""/>
    <tripinfo id="973" depart="64.00" departLane="69_3way_4to3way_3_0" departPos="5.10" departSpeed="0.00" departDelay="3.19" arrival="74.00" arrivalLane="69_3way_4to3way_3_0" arrivalPos="85.60" arrivalSpeed="12.38" duration="10.00" routeLength="80.50" waitingTime="0.00" waitingCount="0" stopTime="0.00" timeLoss="2.86" rerouteNo="0" devices="tripinfo_973" vType="DEFAULT_VEHTYPE" speedFactor="0.93" vaporized=""/>
    <tripinfo id="1047" depart="66.00" departLane="270_4way_162to4way_163_0" departPos="5.10" departSpeed="0.00" departDelay="0.56" arrival="75.00" arrivalLane="270_4way_162to4way_163_0" arrivalPos="85.60" arrivalSpeed="13.83" duration="9.00" routeLength="80.50" waitingTime="0.00" waitingCount="0" stopTime="0.00" timeLoss="2.86" rerouteNo="0" devices="tripinfo_1047" vType="DEFAULT_VEHTYPE" speedFactor="1.01" vaporized=""/>
    <tripinfo id="68" depart="5.00" departLane="254_4way_151to4way_171_0" departPos="5.10" departSpeed="0.00" departDelay="0.75" arrival="76.00" arrivalLane="432_4way_250to4way_249_0" arrivalPos="85.60" arrivalSpeed="14.72" duration="71.00" routeLength="680.30" waitingTime="13.00" waitingCount="1" stopTime="0.00" timeLoss="25.46" rerouteNo="0" devices="tripinfo_68" vType="DEFAULT_VEHTYPE" speedFactor="1.09" vaporized=""/>
    <tripinfo id="148" depart="10.00" departLane="118_4way_375to3way_395_0" departPos="5.10" departSpeed="0.00" departDelay="0.75" arrival="76.00" arrivalLane="117_3way_395to3way_396_0" arrivalPos="85.60" arrivalSpeed="14.06" duration="66.00" routeLength="175.13" waitingTime="43.00" waitingCount="1" stopTime="0.00" timeLoss="53.07" rerouteNo="0" devices="tripinfo_148" vType="DEFAULT_VEHTYPE" speedFactor="1.07" vaporized=""/>
    <tripinfo id="884" depart="56.00" departLane="315_4way_187to4way_188_0" departPos="5.10" departSpeed="0.00" departDelay="0.75" arrival="76.00" arrivalLane="317_4way_188to4way_189_0" arrivalPos="85.60" arrivalSpeed="10.87" duration="20.00" routeLength="180.50" waitingTime="0.00" waitingCount="0" stopTime="0.00" timeLoss="4.87" rerouteNo="0" devices="tripinfo_884" vType="DEFAULT_VEHTYPE" speedFactor="0.87" vaporized=""/>
    <tripinfo id="891" depart="56.00" departLane="51_3way_239to3way_219_0" departPos="5.10" departSpeed="0.00" departDelay="0.31" arrival="76.00" arrivalLane="52_3way_219to4way_218_0" arrivalPos="85.60" arrivalSpeed="11.48" duration="20.00" routeLength="175.13" waitingTime="0.00" waitingCount="0" stopTime="0.00" timeLoss="5.24" rerouteNo="0" devices="tripinfo_891" vType="DEFAULT_VEHTYPE" speedFactor="0.90" vaporized=""/>
    <tripinfo id="203" depart="13.00" departLane="708_4way_62to4way_82_0" departPos="5.10" departSpeed="0.00" departDelay="0.31" arrival="77.00" arrivalLane="742_4way_83to4way_84_0" arrivalPos="85.60" arrivalSpeed="12.18" duration="64.00" routeLength="275.13" waitingTime="31.00" waitingCount="1" stopTime="0.00" timeLoss="42.12" rerouteNo="0" devices="tripinfo_203" vType="DEFAULT_VEHTYPE" speedFactor="0.95" vaporized=""/>
    <tripinfo id="326" depart="21.00" departLane="18_3way_120to4way_121_0" departPos="5.10" departSpeed="0.00" departDelay="0.62" arrival="77.00" arrivalLane="198_4way_121to4way_122_0" arrivalPos="85.60" arrivalSpeed="13.28" duration="56.00" routeLength="180.50" waitingTime="33.00" waitingCount="1" stopTime="0.00" timeLoss="42.99" rerouteNo="0" devices="tripinfo_326" vType="DEFAULT_VEHTYPE" speedFactor="1.00" vaporized=""/>
    <tripinfo id="397" depart="25.00" departLane="372_4way_217to4way_218_0" departPos="5.10" departSpeed="0.00" departDelay="0.19" arrival="77.00" arrivalLane="337_4way_218to4way_198_0" arrivalPos="85.60" arrivalSpeed="14.00" duration="52.00" routeLength="175.13" waitingTime="30.00" waitingCount="1" stopTime="0.00" timeLoss="38.59" rerouteNo="0" devices="tripinfo_397" vType="DEFAULT_VEHTYPE" speedFactor="1.05" vaporized=""/>
    <tripinfo id="416" depart="26.00" departLane="551_4way_31to4way_32_0" departPos="5.10" departSpeed="0.00" departDelay="0.00" arrival="77.00" arrivalLane="570_4way_32to4way_33_0" arrivalPos="85.60" arrivalSpeed="13.69" duration="51.00" routeLength="180.50" waitingTime="27.00" waitingCount="1" stopTime="0.00" timeLoss="37.95" rerouteNo="0" devices="tripinfo_416" vType="DEFAULT_VEHTYPE" speedFactor="1.04" vaporized=""/>
    <tripinfo id="452" depart="29.00" departLane="755_4way_97to4way_96_0" departPos="5.10" departSpeed="0.00" departDelay="0.75" arrival="77.00" arrivalLane="192_4way_96to4way_116_0" arrivalPos="85.60" arrivalSpeed="13.95" duration="48.00" routeLength="175.13" waitingTime="25.00" waitingCount="1" stopTime="0.00" timeLoss="35.12" rerouteNo="0" devices="tripinfo_452" vType="DEFAULT_VEHTYPE" speedFactor="1.09" vaporized=""/>
    <tripinfo id="596" depart="38.00" departLane="679_4way_65to4way_45_0" departPos="5.10" departSpeed="0.00" departDelay="0.75" arrival="77.00" arrivalLane="674_4way_44to4way_43_0" arrivalPos="85.60" arrivalSpeed="14.74" duration="39.00" routeLength="275.13" waitingTime="9.00" waitingCount="1" stopTime="0.00" timeLoss="19.91" rerouteNo="0" devices="tripinfo_596" vType="DEFAULT_VEHTYPE" speedFactor="1.12" vaporized=""/>
    <tripinfo id="262" depart="17.00" departLane="714_4way_85to4way_65_0" departPos="5.10" departSpeed="0.00" departDelay="0.62" arrival="78.00" arrivalLane="124_3way_5to3way_4_0" arrivalPos="85.60" arrivalSpeed="11.88" duration="61.00" routeLength="475.13" waitingTime="15.00" waitingCount="1" stopTime="0.00" timeLoss="22.56" rerouteNo="0" devices="tripinfo_262" vType="DEFAULT_VEHTYPE" speedFactor="0.93" vaporized=""/>
    <tripinfo id="164" depart="11.00" departLane="207_4way_145to4way_125_0" departPos="5.10" departSpeed="0.00" departDelay="0.75" arrival="79.00" arrivalLane="151_4way_104to4way_103_0" arrivalPos="85.60" arrivalSpeed="15.15" duration="68.00" routeLength="375.13" waitingTime="28.00" waitingCount="1" stopTime="0.00" timeLoss="42.18" rerouteNo="0" devices="tripinfo_164" vType="DEFAULT_VEHTYPE" speedFactor="1.11" vaporized=""/>
    <tripinfo id="187" depart="12.00" departLane="33_3way_180to3way_160_0" departPos="5.10" departSpeed="0.00" departDelay="0.31" arrival="79.00" arrivalLane="198_4way_121to4way_122_0" arrivalPos="85.60" arrivalSpeed="13.50" duration="67.00" routeLength="480.30" waitingTime="21.00" waitingCount="1" stopTime="0.00" timeLoss="32.82" rerouteNo="0" devices="tripinfo_187" vType="DEFAULT_VEHTYPE" speedFactor="1.03" vaporized=""/>
    <tripinfo id="712" depart="45.00" departLane="418_4way_242to4way_243_0" departPos="5.10" departSpeed="0.00" departDelay="0.50" arrival="79.00" arrivalLane="382_4way_243to4way_223_0" arrivalPos="85.60" arrivalSpeed="13.51" duration="34.00" routeLength="175.13" waitingTime="12.00" waitingCount="1" stopTime="0.00" timeLoss="20.75" rerouteNo="0" devices="tripinfo_712" vType="DEFAULT_VEHTYPE" speedFactor="1.03" vaporized=""/>
    <tripinfo id="14" depart="1.00" departLane="716_4way_66to4way_86_0" departPos="5.10" departSpeed="0.00" departDelay="0.12" arrival="81.00" arrivalLane="315_4way_187to4way_188_0" arrivalPos="85.60" arrivalSpeed="13.15" duration="80.00" routeLength="775.13" waitingTime="8.00" waitingCount="1" stopTime="0.00" timeLoss="20.68" rerouteNo="0" devices="tripinfo_14" vType="DEFAULT_VEHTYPE" speedFactor="0.95" vaporized=""/>
    <tripinfo id="887" depart="56.00" departLane="8_3way_100to3way_80_0" departPos="5.10" departSpeed="0.00" departDelay="0.56" arrival="81.00" arrivalLane="126_3way_60to3way_40_0" arrivalPos="85.60" arrivalSpeed="12.97" duration="25.00" routeLength="280.50" waitingTime="0.00" waitingCount="0" stopTime="0.00" timeLoss="3.90" rerouteNo="0" devices="tripinfo_887" vType="DEFAULT_VEHTYPE" speedFactor="0.96" vaporized=""/>
    <tripinfo id="47" depart="3.00" departLane="357_4way_21to4way_41_0" departPos="5.10" departSpeed="0.00" departDelay="0.06" arrival="82.00" arrivalLane="235_4way_142to4way_143_0" arrivalPos="85.60" arrivalSpeed="11.52" duration="79.00" routeLength="775.13" waitingTime="2.00" waitingCount="1" stopTime="0.00" timeLoss="15.82" rerouteNo="0" devices="tripinfo_47" vType="DEFAULT_VEHTYPE" speedFactor="0.90" vaporized=""/>
    <tripinfo id="381" depart="24.00" departLane="275_4way_164to4way_184_0" departPos="5.10" departSpeed="0.00" departDelay="0.19" arrival="82.00" arrivalLane="541_4way_305to4way_306_0" arrivalPos="85.60" arrivalSpeed="16.72" duration="58.00" routeLength="875.13" waitingTime="0.00" waitingCount="0" stopTime="0.00" timeLoss="7.93" rerouteNo="0" devices="tripinfo_381" vType="DEFAULT_VEHTYPE" speedFactor="1.27" vaporized=""/>
    <tripinfo id="533" depart="34.00" departLane="14_4way_118to3way_119_0" departPos="5.10" departSpeed="0.00" departDelay="0.69" arrival="83.00" arrivalLane="138_3way_99to3way_79_0" arrivalPos="85.60" arrivalSpeed="14.03" duration="49.00" routeLength="275.13" waitingTime="21.00" waitingCount="1" stopTime="0.00" timeLoss="30.14" rerouteNo="0" devices="tripinfo_533" vType="DEFAULT_VEHTYPE" speedFactor="1.09" vaporized=""/>
    <tripinfo id="664" depart="42.00" departLane="702_4way_57to4way_58_0" departPos="5.10" departSpeed="0.00" departDelay="0.50" arrival="83.00" arrivalLane="40_4way_38to3way_18_0" arrivalPos="85.60" arrivalSpeed="15.84" duration="41.00" routeLength="275.13" waitingTime="14.00" waitingCount="1" stopTime="0.00" timeLoss="23.00" rerouteNo="0" devices="tripinfo_664" vType="DEFAULT_VEHTYPE" speedFactor="1.17" vaporized=""/>
    <tripinfo id="762" depart="48.00" departLane="666_4way_376to4way_375_0" departPos="5.10" departSpeed="0.00" departDelay="0.37" arrival="83.00" arrivalLane="664_4way_374to4way_373_0" arrivalPos="85.60" arrivalSpeed="14.45" duration="35.00" routeLength="280.50" waitingTime="7.00" waitingCount="1" stopTime="0.00" timeLoss="16.09" rerouteNo="0" devices="tripinfo_762" vType="DEFAULT_VEHTYPE" speedFactor="1.07" vaporized=""/>
    <tripinfo id="857" depart="54.00" departLane="42_4way_181to3way_180_0" departPos="5.10" departSpeed="0.00" departDelay="0.44" arrival="83.00" arrivalLane="49_3way_200to3way_220_0" arrivalPos="85.60" arrivalSpeed="15.04" duration="29.00" routeLength="275.13" waitingTime="1.00" waitingCount="1" stopTime="0.00" timeLoss="10.40" rerouteNo="0" devices="tripinfo_857" vType="DEFAULT_VEHTYPE" speedFactor="1.11" vaporized=""/>
    <tripinfo id="127" depart="8.00" departLane="78_3way_339to4way_338_0" departPos="5.10" departSpeed="0.00" departDelay="0.06" arrival="84.00" arrivalLane="604_4way_337to4way_336_0" arrivalPos="85.60" arrivalSpeed="12.94" duration="76.00" routeLength="280.50" waitingTime="47.00" waitingCount="1" stopTime="0.00" timeLoss="55.61" rerouteNo="0" devices="tripinfo_127" vType="DEFAULT_VEHTYPE" speedFactor="1.00" vaporized=""/>
    <tripinfo id="296" depart="19.00" departLane="431_4way_248to4way_268_0" departPos="5.10" departSpeed="0.00" departDelay="0.50" arrival="84.00" arrivalLane="553_4way_310to4way_311_0" arrivalPos="85.60" arrivalSpeed="14.04" duration="65.00" routeLength="575.13" waitingTime="11.00" waitingCount="1" stopTime="0.00" timeLoss="23.30" rerouteNo="0" devices="tripinfo_296" vType="DEFAULT_VEHTYPE" speedFactor="1.02" vaporized=""/>
    <tripinfo id="177" depart="13.00" departLane="634_4way_371to4way_351_0" departPos="5.10" departSpeed="0.00" departDelay="1.94" arrival="85.00" arrivalLane="547_4way_309to4way_308_0" arrivalPos="85.60" arrivalSpeed="13.26" duration="72.00" routeLength="575.13" waitingTime="17.00" waitingCount="1" stopTime="0.00" timeLoss="30.26" rerouteNo="0" devices="tripinfo_177" vType="DEFAULT_VEHTYPE" speedFactor="1.03" vaporized=""/>
    <tripinfo id="437" depart="28.00" departLane="544_4way_306to4way_326_0" departPos="5.10" departSpeed="0.00" departDelay="0.69" arrival="85.00" arrivalLane="652_4way_364to4way_363_0" arrivalPos="85.60" arrivalSpeed="12.02" duration="57.00" routeLength="580.30" waitingTime="0.00" waitingCount="0" stopTime="0.00" timeLoss="11.64" rerouteNo="0" devices="tripinfo_437" vType="DEFAULT_VEHTYPE" speedFactor="0.94" vaporized=""/>
    <tripinfo id="1195" depart="75.00" departLane="601_4way_354to4way_334_0" departPos="5.10" departSpeed="0.00" departDelay="0.31" arrival="85.00" arrivalLane="601_4way_354to4way_334_0" arrivalPos="85.60" arrivalSpeed="12.12" duration="10.00" routeLength="80.50" waitingTime="0.00" waitingCount="0" stopTime="0.00" timeLoss="3.09" rerouteNo="0" devices="tripinfo_1195" vType="DEFAULT_VEHTYPE" speedFactor="0.93" vaporized=""/>
    <tripinfo id="649" depart="41.00" departLane="117_3way_395to3way_396_0" departPos="5.10" departSpeed="0.00" departDelay="0.44" arrival="86.00" arrivalLane="647_4way_378to4way_358_0" arrivalPos="85.60" arrivalSpeed="12.60" duration="45.00" routeLength="475.13" waitingTime="0.00" waitingCount="0" stopTime="0.00" timeLoss="6.35" rerouteNo="0" devices="tripinfo_649" vType="DEFAULT_VEHTYPE" speedFactor="0.92" vaporized=""/>
    <tripinfo id="741" depart="47.00" departLane="40_4way_38to3way_18_0" departPos="5.10" departSpeed="0.00" departDelay="0.69" arrival="86.00" arrivalLane="31_3way_17to3way_16_0" arrivalPos="85.60" arrivalSpeed="15.20" duration="39.00" routeLength="275.13" waitingTime="8.00" waitingCount="1" stopTime="0.00" timeLoss="19.84" rerouteNo="0" devices="tripinfo_741" vType="DEFAULT_VEHTYPE" speedFactor="1.12" vaporized=""/>
    <tripinfo id="316" depart="20.00" departLane="315_4way_188to4way_187_0" departPos="5.10" departSpeed="0.00" departDelay="0.25" arrival="87.00" arrivalLane="314_4way_186to4way_206_0" arrivalPos="85.60" arrivalSpeed="11.34" duration="67.00" routeLength="275.13" waitingTime="35.00" waitingCount="1" stopTime="0.00" timeLoss="44.23" rerouteNo="0" devices="tripinfo_316" vType="DEFAULT_VEHTYPE" speedFactor="0.89" vaporized=""/>
    <tripinfo id="421" depart="27.00" departLane="664_4way_374to4way_373_0" departPos="5.10" departSpeed="0.00" departDelay="0.69" arrival="87.00" arrivalLane="112_4way_372to3way_392_0" arrivalPos="85.60" arrivalSpeed="13.66" duration="60.00" routeLength="275.13" waitingTime="28.00" waitingCount="1" stopTime="0.00" timeLoss="38.63" rerouteNo="0" devices="tripinfo_421" vType="DEFAULT_VEHTYPE" speedFactor="0.99" vaporized=""/>
    <tripinfo id="1261" depart="79.00" departLane="602_4way_335to4way_336_0" departPos="5.10" departSpeed="0.00" departDelay="0.19" arrival="88.00" arrivalLane="602_4way_335to4way_336_0" arrivalPos="85.60" arrivalSpeed="14.11" duration="9.00" routeLength="80.50" waitingTime="0.00" waitingCount="0" stopTime="0.00" timeLoss="3.25" rerouteNo="0" devices="tripinfo_1261" vType="DEFAULT_VEHTYPE" speedFactor="1.03" vaporized=""/>
    <tripinfo id="257" depart="17.00" departLane="438_4way_252to4way_251_0" departPos="5.10" departSpeed="0.00" departDelay="0.94" arrival="89.00" arrivalLane="437_4way_250to4way_270_0" arrivalPos="85.60" arrivalSpeed="11.41" duration="72.00" routeLength="275.13" waitingTime="38.00" waitingCount="1" stopTime="0.00" timeLoss="47.45" rerouteNo="0" devices="tripinfo_257" vType="DEFAULT_VEHTYPE" speedFactor="0.83" vaporized=""/>
    <tripinfo id="585" depart="37.00" departLane="344_4way_205to4way_204_0" departPos="5.10" departSpeed="0.00" departDelay="0.44" arrival="89.00" arrivalLane="343_4way_203to4way_223_0" arrivalPos="85.60" arrivalSpeed="12.14" duration="52.00" routeLength="275.13" waitingTime="18.00" waitingCount="1" stopTime="0.00" timeLoss="27.58" rerouteNo="0" devices="tripinfo_585" vType="DEFAULT_VEHTYPE" speedFactor="0.88" vaporized=""/>
    <tripinfo id="863" depart="54.00" departLane="18_3way_120to4way_121_0" departPos="5.10" departSpeed="0.00" departDelay="0.06" arrival="90.00" arrivalLane="200_4way_122to4way_123_0" arrivalPos="85.60" arrivalSpeed="13.32" duration="36.00" routeLength="280.50" waitingTime="6.00" waitingCount="1" stopTime="0.00" timeLoss="15.82" rerouteNo="0" devices="tripinfo_863" vType="DEFAULT_VEHTYPE" speedFactor="1.01" vaporized=""/>
    <tripinfo id="59" depart="6.00" departLane="179_4way_112to4way_132_0" departPos="5.10" departSpeed="0.00" departDelay="2.31" arrival="91.00" arrivalLane="296_4way_175to4way_176_0" arrivalPos="85.60" arrivalSpeed="14.11" duration="85.00" routeLength="675.13" waitingTime="23.00" waitingCount="1" stopTime="0.00" timeLoss="36.78" rerouteNo="0" devices="tripinfo_59" vType="DEFAULT_VEHTYPE" speedFactor="1.03" vaporized=""/>