<?xml version="1.0" encoding="UTF-8"?>

<!-- generated on 2023-07-27 01:09:57 by Eclipse SUMO sumo Version 1.12.0
<configuration xmlns:xsi="http://www.w3.org/2001/XMLSchema-instance" xsi:noNamespaceSchemaLocation="http://sumo.dlr.de/xsd/sumoConfiguration.xsd">

    <input>
        <net-file value="../../data_generation/sq.net.xml"/>
        <route-files value="../../data_generation/sq.rou.xml"/>
    </input>

    <output>
        <tripinfo-output value="tripinfo.xml"/>
        <statistic-output value="statistic.xml"/>
    </output>

    <time>
        <begin value="0"/>
        <end value="3600"/>
    </time>

    <processing>
        <time-to-teleport value="-1"/>
    </processing>

    <traci_server>
        <remote-port value="51031"/>
    </traci_server>

    <random_number>
        <seed value="1395"/>
    </random_number>

    <gui_only>
        <gui-settings-file value="../../data_generation/view_HY_0402.xml"/>
    </gui_only>

</configuration>
-->

<tripinfos xmlns:xsi="http://www.w3.org/2001/XMLSchema-instance" xsi:noNamespaceSchemaLocation="http://sumo.dlr.de/xsd/tripinfo_file.xsd">
    <tripinfo id="8" depart="23.00" departLane="74_4way_39to4way_32_0" departPos="5.10" departSpeed="0.00" departDelay="0.14" arrival="56.00" arrivalLane="45_4way_18to4way_11_0" arrivalPos="85.60" arrivalSpeed="13.36" duration="33.00" routeLength="380.50" waitingTime="0.00" waitingCount="0" stopTime="0.00" timeLoss="4.23" rerouteNo="0" devices="tripinfo_8" vType="DEFAULT_VEHTYPE" speedFactor="0.98" vaporized=""/>
    <tripinfo id="13" depart="38.00" departLane="7_3way_14to3way_21_0" departPos="5.10" departSpeed="0.00" departDelay="0.86" arrival="70.00" arrivalLane="19_3way_28to4way_29_0" arrivalPos="85.60" arrivalSpeed="4.87" duration="32.00" routeLength="275.13" waitingTime="1.00" waitingCount="1" stopTime="0.00" timeLoss="11.28" rerouteNo="0" devices="tripinfo_13" vType="DEFAULT_VEHTYPE" speedFactor="0.98" vaporized=""/>
    <tripinfo id="15" depart="43.00" departLane="80_4way_9to4way_8_0" departPos="5.10" departSpeed="0.00" departDelay="0.14" arrival="70.00" arrivalLane="80_4way_9to4way_8_0" arrivalPos="85.60" arrivalSpeed="5.36" duration="27.00" routeLength="80.50" waitingTime="12.00" waitingCount="1" stopTime="0.00" timeLoss="21.39" rerouteNo="0" devices="tripinfo_15" vType="DEFAULT_VEHTYPE" speedFactor="1.05" vaporized=""/>
    <tripinfo id="9" depart="26.00" departLane="45_4way_11to4way_18_0" departPos="5.10" departSpeed="0.00" departDelay="0.29" arrival="71.00" arrivalLane="79_4way_39to4way_40_0" arrivalPos="85.60" arrivalSpeed="12.18" duration="45.00" routeLength="475.13" waitingTime="0.00" waitingCount="0" stopTime="0.00" timeLoss="6.83" rerouteNo="0" devices="tripinfo_9" vType="DEFAULT_VEHTYPE" speedFactor="0.91" vaporized=""/>
    <tripinfo id="12" depart="35.00" departLane="17_4way_26to3way_27_0" departPos="5.10" departSpeed="0.00" departDelay="0.71" arrival="76.00" arrivalLane="12_3way_27to3way_20_0" arrivalPos="85.60" arrivalSpeed="15.57" duration="41.00" routeLength="175.13" waitingTime="19.00" waitingCount="1" stopTime="0.00" timeLoss="29.41" rerouteNo="0" devices="tripinfo_12" vType="DEFAULT_VEHTYPE" speedFactor="1.16" vaporized=""/>
    <tripinfo id="0" depart="0.00" departLane="63_4way_24to4way_31_0" departPos="5.10" departSpeed="0.00" departDelay="0.00" arrival="77.00" arrivalLane="76_4way_37to4way_36_0" arrivalPos="85.60" arrivalSpeed="13.78" duration="77.00" routeLength="380.30" waitingTime="37.00" waitingCount="1" stopTime="0.00" timeLoss="48.42" rerouteNo="0" devices="tripinfo_0" vType="DEFAULT_VEHTYPE" speedFactor="1.00" vaporized=""/>
    <tripinfo id="2" depart="6.00" departLane="70_4way_37to4way_30_0" departPos="5.10" departSpeed="0.00" departDelay="0.29" arrival="77.00" arrivalLane="40_4way_8to3way_7_0" arrivalPos="85.60" arrivalSpeed="13.49" duration="71.00" routeLength="575.13" waitingTime="18.00" waitingCount="1" stopTime="0.00" timeLoss="30.03" rerouteNo="0" devices="tripinfo_2" vType="DEFAULT_VEHTYPE" speedFactor="1.04" vaporized=""/>
    <tripinfo id="14" depart="40.00" departLane="35_4way_38to3way_45_0" departPos="5.10" departSpeed="0.00" departDelay="0.00" arrival="77.00" arrivalLane="34_3way_45to3way_46_0" arrivalPos="85.60" arrivalSpeed="12.31" duration="37.00" routeLength="175.13" waitingTime="15.00" waitingCount="1" stopTime="0.00" timeLoss="22.81" rerouteNo="0" devices="tripinfo_14" vType="DEFAULT_VEHTYPE" speedFactor="0.95" vaporized=""/>
    <tripinfo id="18" depart="52.00" departLane="8_3way_7to3way_14_0" departPos="5.10" departSpeed="0.00" departDelay="0.57" arrival="77.00" arrivalLane="14_3way_21to3way_28_0" arrivalPos="85.60" arrivalSpeed="12.21" duration="25.00" routeLength="280.50" waitingTime="0.00" waitingCount="0" stopTime="0.00" timeLoss="3.71" rerouteNo="0" devices="tripinfo_18" vType="DEFAULT_VEHTYPE" speedFactor="0.96" vaporized=""/>
    <tripinfo id="22" depart="63.00" departLane="40_3way_7to4way_8_0" departPos="5.10" departSpeed="0.00" departDelay="0.14" arrival="80.00" arrivalLane="80_4way_8to4way_9_0" arrivalPos="85.60" arrivalSpeed="13.76" duration="17.00" routeLength="180.50" waitingTime="0.00" waitingCount="0" stopTime="0.00" timeLoss="3.47" rerouteNo="0" devices="tripinfo_22" vType="DEFAULT_VEHTYPE" speedFactor="1.00" vaporized=""/>
    <tripinfo id="24" depart="69.00" departLane="16_3way_27to3way_34_0" departPos="5.10" departSpeed="0.00" departDelay="0.43" arrival="86.00" arrivalLane="22_3way_34to3way_41_0" arrivalPos="85.60" arrivalSpeed="13.16" duration="17.00" routeLength="180.50" waitingTime="0.00" waitingCount="0" stopTime="0.00" timeLoss="3.34" rerouteNo="0" devices="tripinfo_24" vType="DEFAULT_VEHTYPE" speedFactor="0.97" vaporized=""/>
    <tripinfo id="21" depart="60.00" departLane="18_3way_28to3way_35_0" departPos="5.10" departSpeed="0.00" departDelay="0.00" arrival="89.00" arrivalLane="24_3way_35to3way_43_0" arrivalPos="182.40" arrivalSpeed="10.64" duration="29.00" routeLength="277.30" waitingTime="0.00" waitingCount="0" stopTime="0.00" timeLoss="3.93" rerouteNo="0" devices="tripinfo_21" vType="DEFAULT_VEHTYPE" speedFactor="0.82" vaporized=""/>
    <tripinfo id="7" depart="20.00" departLane="56_4way_25to4way_18_0" departPos="5.10" departSpeed="0.00" departDelay="0.00" arrival="93.00" arrivalLane="1_3way_2to3way_1_0" arrivalPos="85.60" arrivalSpeed="12.54" duration="73.00" routeLength="575.13" waitingTime="20.00" waitingCount="1" stopTime="0.00" timeLoss="28.61" rerouteNo="0" devices="tripinfo_7" vType="DEFAULT_VEHTYPE" speedFactor="0.95" vaporized=""/>
    <tripinfo id="23" depart="66.00" departLane="39_3way_5to4way_12_0" departPos="5.10" departSpeed="0.00" departDelay="0.29" arrival="111.00" arrivalLane="75_4way_33to4way_40_0" arrivalPos="85.60" arrivalSpeed="10.96" duration="45.00" routeLength="480.50" waitingTime="0.00" waitingCount="0" stopTime="0.00" timeLoss="4.70" rerouteNo="0" devices="tripinfo_23" vType="DEFAULT_VEHTYPE" speedFactor="0.87" vaporized=""/>
    <tripinfo id="6" depart="18.00" departLane="46_4way_19to4way_12_0" departPos="5.10" departSpeed="0.00" departDelay="0.86" arrival="132.00" arrivalLane="43_4way_10to4way_9_0" arrivalPos="85.60" arrivalSpeed="8.04" duration="114.00" routeLength="375.13" waitingTime="67.00" waitingCount="2" stopTime="0.00" timeLoss="87.29" rerouteNo="0" devices="tripinfo_6" vType="DEFAULT_VEHTYPE" speedFactor="1.04" vaporized=""/>
    <tripinfo id="1" depart="3.00" departLane="76_4way_36to4way_37_0" departPos="5.10" departSpeed="0.00" departDelay="0.14" arrival="137.00" arrivalLane="61_4way_30to4way_23_0" arrivalPos="85.60" arrivalSpeed="14.39" duration="134.00" routeLength="275.13" waitingTime="99.00" waitingCount="2" stopTime="0.00" timeLoss="113.58" rerouteNo="0" devices="tripinfo_1" vType="DEFAULT_VEHTYPE" speedFactor="1.04" vaporized=""/>
    <tripinfo id="10" depart="29.00" departLane="41_4way_11to4way_10_0" departPos="5.10" departSpeed="0.00" departDelay="0.43" arrival="137.00" arrivalLane="80_4way_9to4way_8_0" arrivalPos="85.60" arrivalSpeed="13.51" duration="108.00" routeLength="280.50" waitingTime="72.00" waitingCount="2" stopTime="0.00" timeLoss="87.85" rerouteNo="0" devices="tripinfo_10" vType="DEFAULT_VEHTYPE" speedFactor="1.04" vaporized=""/>
    <tripinfo id="11" depart="32.00" departLane="61_4way_30to4way_23_0" departPos="5.10" departSpeed="0.00" departDelay="0.57" arrival="137.00" arrivalLane="6_4way_12to3way_13_0" arrivalPos="85.60" arrivalSpeed="13.73" duration="105.00" routeLength="680.30" waitingTime="40.00" waitingCount="1" stopTime="0.00" timeLoss="54.99" rerouteNo="0" devices="tripinfo_11" vType="DEFAULT_VEHTYPE" speedFactor="1.01" vaporized=""/>
    <tripinfo id="16" depart="46.00" departLane="51_4way_23to4way_16_0" departPos="5.10" departSpeed="0.00" departDelay="0.29" arrival="137.00" arrivalLane="1_3way_2to3way_1_0" arrivalPos="85.60" arrivalSpeed="12.24" duration="91.00" routeLength="375.13" waitingTime="52.00" waitingCount="1" stopTime="0.00" timeLoss="60.16" rerouteNo="0" devices="tripinfo_16" vType="DEFAULT_VEHTYPE" speedFactor="0.90" vaporized=""/>
    <tripinfo id="17" depart="49.00" departLane="42_4way_10to4way_17_0" departPos="5.10" departSpeed="0.00" departDelay="0.43" arrival="137.00" arrivalLane="64_4way_25to4way_26_0" arrivalPos="85.60" arrivalSpeed="13.57" duration="88.00" routeLength="375.13" waitingTime="49.00" waitingCount="1" stopTime="0.00" timeLoss="60.62" rerouteNo="0" devices="tripinfo_17" vType="DEFAULT_VEHTYPE" speedFactor="1.04" vaporized=""/>
    <tripinfo id="19" depart="55.00" departLane="21_3way_3to4way_10_0" departPos="5.10" departSpeed="0.00" departDelay="0.71" arrival="137.00" arrivalLane="42_4way_10to4way_17_0" arrivalPos="85.60" arrivalSpeed="12.12" duration="82.00" routeLength="180.50" waitingTime="60.00" waitingCount="1" stopTime="0.00" timeLoss="67.32" rerouteNo="0" devices="tripinfo_19" vType="DEFAULT_VEHTYPE" speedFactor="0.89" vaporized=""/>
    <tripinfo id="25" depart="72.00" departLane="37_3way_46to4way_39_0" departPos="5.10" departSpeed="0.00" departDelay="0.57" arrival="137.00" arrivalLane="77_4way_38to4way_37_0" arrivalPos="85.60" arrivalSpeed="13.06" duration="65.00" routeLength="275.13" waitingTime="34.00" waitingCount="1" stopTime="0.00" timeLoss="43.15" rerouteNo="0" devices="tripinfo_25" vType="DEFAULT_VEHTYPE" speedFactor="0.95" vaporized=""/>
    <tripinfo id="38" depart="109.00" departLane="42_4way_17to4way_10_0" departPos="5.10" departSpeed="0.00" departDelay="0.43" arrival="137.00" arrivalLane="21_4way_10to3way_3_0" arrivalPos="85.60" arrivalSpeed="13.31" duration="28.00" routeLength="180.50" waitingTime="5.00" waitingCount="1" stopTime="0.00" timeLoss="14.55" rerouteNo="0" devices="tripinfo_38" vType="DEFAULT_VEHTYPE" speedFactor="1.00" vaporized=""/>
    <tripinfo id="34" depart="98.00" departLane="11_3way_2to4way_9_0" departPos="5.10" departSpeed="0.00" departDelay="0.86" arrival="141.00" arrivalLane="69_4way_30to4way_31_0" arrivalPos="85.60" arrivalSpeed="13.23" duration="43.00" routeLength="475.13" waitingTime="0.00" waitingCount="0" stopTime="0.00" timeLoss="6.27" rerouteNo="0" devices="tripinfo_34" vType="DEFAULT_VEHTYPE" speedFactor="0.96" vaporized=""/>
    <tripinfo id="27" depart="78.00" departLane="39_3way_5to4way_12_0" departPos="5.10" departSpeed="0.00" departDelay="0.86" arrival="145.00" arrivalLane="12_3way_20to3way_27_0" arrivalPos="85.60" arrivalSpeed="13.64" duration="67.00" routeLength="374.92" waitingTime="26.00" waitingCount="1" stopTime="0.00" timeLoss="38.83" rerouteNo="0" devices="tripinfo_27" vType="DEFAULT_VEHTYPE" speedFactor="1.03" vaporized=""/>
    <tripinfo id="37" depart="106.00" departLane="7_3way_14to3way_21_0" departPos="5.10" departSpeed="0.00" departDelay="0.29" arrival="145.00" arrivalLane="24_3way_35to3way_43_0" arrivalPos="182.40" arrivalSpeed="12.67" duration="39.00" routeLength="477.30" waitingTime="0.00" waitingCount="0" stopTime="0.00" timeLoss="4.29" rerouteNo="0" devices="tripinfo_37" vType="DEFAULT_VEHTYPE" speedFactor="0.99" vaporized=""/>
    <tripinfo id="20" depart="58.00" departLane="4_3way_13to3way_20_0" departPos="5.10" departSpeed="0.00" departDelay="0.86" arrival="146.00" arrivalLane="22_3way_34to3way_41_0" arrivalPos="85.60" arrivalSpeed="12.40" duration="88.00" routeLength="380.50" waitingTime="47.00" waitingCount="1" stopTime="0.00" timeLoss="56.78" rerouteNo="0" devices="tripinfo_20" vType="DEFAULT_VEHTYPE" speedFactor="0.89" vaporized=""/>
    <tripinfo id="3" depart="9.00" departLane="44_4way_12to4way_11_0" departPos="5.10" departSpeed="0.00" departDelay="0.43" arrival="147.00" arrivalLane="40_4way_8to3way_7_0" arrivalPos="85.60" arrivalSpeed="12.53" duration="138.00" routeLength="480.50" waitingTime="86.00" waitingCount="2" stopTime="0.00" timeLoss="100.12" rerouteNo="0" devices="tripinfo_3" vType="DEFAULT_VEHTYPE" speedFactor="0.91" vaporized=""/>
    <tripinfo id="50" depart="143.00" departLane="52_4way_9to4way_16_0" departPos="5.10" departSpeed="0.00" departDelay="0.14" arrival="152.00" arrivalLane="52_4way_9to4way_16_0" arrivalPos="85.60" arrivalSpeed="13.61" duration="9.00" routeLength="80.50" waitingTime="0.00" waitingCount="0" stopTime="0.00" timeLoss="2.82" rerouteNo="0" devices="tripinfo_50" vType="DEFAULT_VEHTYPE" speedFactor="1.01" vaporized=""/>
    <tripinfo id="51" depart="146.00" departLane="66_4way_26to4way_33_0" departPos="5.10" departSpeed="0.00" departDelay="0.29" arrival="178.00" arrivalLane="38_4way_40to3way_47_0" arrivalPos="85.60" arrivalSpeed="9.73" duration="32.00" routeLength="280.50" waitingTime="0.00" waitingCount="0" stopTime="0.00" timeLoss="4.00" rerouteNo="0" devices="tripinfo_51" vType="DEFAULT_VEHTYPE" speedFactor="0.74" vaporized=""/>
    <tripinfo id="42" depart="120.00" departLane="43_4way_10to4way_9_0" departPos="5.10" departSpeed="0.00" departDelay="0.00" arrival="182.00" arrivalLane="31_4way_36to3way_43_0" arrivalPos="85.60" arrivalSpeed="13.24" duration="62.00" routeLength="675.13" waitingTime="0.00" waitingCount="0" stopTime="0.00" timeLoss="11.77" rerouteNo="0" devices="tripinfo_42" vType="DEFAULT_VEHTYPE" speedFactor="0.99" vaporized=""/>
    <tripinfo id="61" depart="175.00" departLane="33_3way_44to4way_37_0" departPos="5.10" departSpeed="0.00" departDelay="0.72" arrival="191.00" arrivalLane="33_3way_44to4way_37_0" arrivalPos="85.60" arrivalSpeed="5.87" duration="16.00" routeLength="80.50" waitingTime="2.00" waitingCount="1" stopTime="0.00" timeLoss="9.97" rerouteNo="0" devices="tripinfo_61" vType="DEFAULT_VEHTYPE" speedFactor="1.01" vaporized=""/>
    <tripinfo id="64" depart="183.00" departLane="52_4way_16to4way_9_0" departPos="5.10" departSpeed="0.00" departDelay="0.15" arrival="192.00" arrivalLane="52_4way_16to4way_9_0" arrivalPos="85.60" arrivalSpeed="12.79" duration="9.00" routeLength="80.50" waitingTime="0.00" waitingCount="0" stopTime="0.00" timeLoss="2.80" rerouteNo="0" devices="tripinfo_64" vType="DEFAULT_VEHTYPE" speedFactor="0.96" vaporized=""/>
    <tripinfo id="30" depart="86.00" departLane="26_3way_5to3way_4_0" departPos="5.10" departSpeed="0.00" departDelay="0.29" arrival="197.00" arrivalLane="45_4way_11to4way_18_0" arrivalPos="85.60" arrivalSpeed="13.40" duration="111.00" routeLength="275.13" waitingTime="77.00" waitingCount="2" stopTime="0.00" timeLoss="90.68" rerouteNo="0" devices="tripinfo_30" vType="DEFAULT_VEHTYPE" speedFactor="1.05" vaporized=""/>
    <tripinfo id="36" depart="103.00" departLane="4_3way_13to3way_20_0" departPos="5.10" departSpeed="0.00" departDelay="0.14" arrival="197.00" arrivalLane="32_3way_45to3way_44_0" arrivalPos="85.60" arrivalSpeed="16.05" duration="94.00" routeLength="883.70" waitingTime="16.00" waitingCount="2" stopTime="0.00" timeLoss="38.29" rerouteNo="0" devices="tripinfo_36" vType="DEFAULT_VEHTYPE" speedFactor="1.16" vaporized=""/>
    <tripinfo id="57" depart="163.00" departLane="58_4way_22to4way_23_0" departPos="5.10" departSpeed="0.00" departDelay="0.14" arrival="198.00" arrivalLane="60_4way_23to4way_24_0" arrivalPos="85.60" arrivalSpeed="13.35" duration="35.00" routeLength="180.50" waitingTime="10.00" waitingCount="1" stopTime="0.00" timeLoss="20.88" rerouteNo="0" devices="tripinfo_57" vType="DEFAULT_VEHTYPE" speedFactor="0.97" vaporized=""/>
    <tripinfo id="4" depart="12.00" departLane="14_3way_21to3way_28_0" departPos="5.10" departSpeed="0.00" departDelay="0.57" arrival="199.00" arrivalLane="73_4way_32to4way_33_0" arrivalPos="85.60" arrivalSpeed="13.78" duration="187.00" routeLength="575.13" waitingTime="121.00" waitingCount="3" stopTime="0.00" timeLoss="145.50" rerouteNo="0" devices="tripinfo_4" vType="DEFAULT_VEHTYPE" speedFactor="1.02" vaporized=""/>
    <tripinfo id="48" depart="138.00" departLane="73_4way_33to4way_32_0" departPos="5.10" departSpeed="0.00" departDelay="0.86" arrival="199.00" arrivalLane="71_4way_32to4way_31_0" arrivalPos="85.60" arrivalSpeed="10.94" duration="61.00" routeLength="180.50" waitingTime="37.00" waitingCount="1" stopTime="0.00" timeLoss="44.84" rerouteNo="0" devices="tripinfo_48" vType="DEFAULT_VEHTYPE" speedFactor="0.83" vaporized=""/>
    <tripinfo id="33" depart="95.00" departLane="61_4way_23to4way_30_0" departPos="5.10" departSpeed="0.00" departDelay="0.72" arrival="203.00" arrivalLane="73_4way_32to4way_33_0" arrivalPos="85.60" arrivalSpeed="13.66" duration="108.00" routeLength="375.13" waitingTime="65.00" waitingCount="2" stopTime="0.00" timeLoss="81.14" rerouteNo="0" devices="tripinfo_33" vType="DEFAULT_VEHTYPE" speedFactor="1.06" vaporized=""/>
    <tripinfo id="26" depart="75.00" departLane="38_3way_47to4way_40_0" departPos="5.10" departSpeed="0.00" departDelay="0.71" arrival="205.00" arrivalLane="80_4way_9to4way_8_0" arrivalPos="85.60" arrivalSpeed="13.71" duration="130.00" routeLength="875.13" waitingTime="55.00" waitingCount="1" stopTime="0.00" timeLoss="67.80" rerouteNo="0" devices="tripinfo_26" vType="DEFAULT_VEHTYPE" speedFactor="1.03" vaporized=""/>
    <tripinfo id="58" depart="166.00" departLane="69_4way_30to4way_31_0" departPos="5.10" departSpeed="0.00" departDelay="0.29" arrival="205.00" arrivalLane="73_4way_32to4way_33_0" arrivalPos="85.60" arrivalSpeed="11.79" duration="39.00" routeLength="280.50" waitingTime="6.00" waitingCount="1" stopTime="0.00" timeLoss="17.07" rerouteNo="0" devices="tripinfo_58" vType="DEFAULT_VEHTYPE" speedFactor="0.93" vaporized=""/>
    <tripinfo id="45" depart="129.00" departLane="3_3way_1to4way_8_0" departPos="5.10" departSpeed="0.00" departDelay="0.43" arrival="207.00" arrivalLane="47_4way_15to4way_16_0" arrivalPos="85.60" arrivalSpeed="13.55" duration="78.00" routeLength="275.13" waitingTime="46.00" waitingCount="1" stopTime="0.00" timeLoss="56.76" rerouteNo="0" devices="tripinfo_45" vType="DEFAULT_VEHTYPE" speedFactor="1.00" vaporized=""/>
    <tripinfo id="56" depart="160.00" departLane="54_4way_17to4way_24_0" departPos="5.10" departSpeed="0.00" departDelay="0.00" arrival="207.00" arrivalLane="78_4way_38to4way_39_0" arrivalPos="85.60" arrivalSpeed="12.81" duration="47.00" routeLength="375.13" waitingTime="6.00" waitingCount="1" stopTime="0.00" timeLoss="19.20" rerouteNo="0" devices="tripinfo_56" vType="DEFAULT_VEHTYPE" speedFactor="1.02" vaporized=""/>
    <tripinfo id="29" depart="83.00" departLane="19_3way_28to4way_29_0" departPos="5.10" departSpeed="0.00" departDelay="0.14" arrival="209.00" arrivalLane="23_4way_33to3way_34_0" arrivalPos="85.60" arrivalSpeed="13.00" duration="126.00" routeLength="580.50" waitingTime="64.00" waitingCount="2" stopTime="0.00" timeLoss="81.52" rerouteNo="0" devices="tripinfo_29" vType="DEFAULT_VEHTYPE" speedFactor="0.95" vaporized=""/>
    <tripinfo id="69" depart="198.00" departLane="53_4way_17to4way_18_0" departPos="5.10" departSpeed="0.00" departDelay="0.86" arrival="209.00" arrivalLane="53_4way_17to4way_18_0" arrivalPos="85.60" arrivalSpeed="10.97" duration="11.00" routeLength="80.50" waitingTime="0.00" waitingCount="0" stopTime="0.00" timeLoss="3.18" rerouteNo="0" devices="tripinfo_69" vType="DEFAULT_VEHTYPE" speedFactor="0.82" vaporized=""/>
    <tripinfo id="62" depart="178.00" departLane="8_3way_7to3way_14_0" departPos="5.10" departSpeed="0.00" departDelay="0.86" arrival="211.00" arrivalLane="58_4way_22to4way_23_0" arrivalPos="85.60" arrivalSpeed="13.93" duration="33.00" routeLength="375.13" waitingTime="0.00" waitingCount="0" stopTime="0.00" timeLoss="6.62" rerouteNo="0" devices="tripinfo_62" vType="DEFAULT_VEHTYPE" speedFactor="1.05" vaporized=""/>
    <tripinfo id="53" depart="152.00" departLane="32_3way_44to3way_45_0" departPos="5.10" departSpeed="0.00" departDelay="0.57" arrival="216.00" arrivalLane="54_4way_24to4way_17_0" arrivalPos="85.60" arrivalSpeed="14.54" duration="64.00" routeLength="475.13" waitingTime="22.00" waitingCount="1" stopTime="0.00" timeLoss="36.15" rerouteNo="0" devices="tripinfo_53" vType="DEFAULT_VEHTYPE" speedFactor="1.27" vaporized=""/>
    <tripinfo id="70" depart="200.00" departLane="46_4way_19to4way_12_0" departPos="5.10" departSpeed="0.00" departDelay="0.00" arrival="221.00" arrivalLane="39_4way_12to3way_5_0" arrivalPos="85.60" arrivalSpeed="10.04" duration="21.00" routeLength="180.50" waitingTime="0.00" waitingCount="0" stopTime="0.00" timeLoss="3.25" rerouteNo="0" devices="tripinfo_70" vType="DEFAULT_VEHTYPE" speedFactor="0.75" vaporized=""/>
    <tripinfo id="47" depart="135.00" departLane="35_3way_45to4way_38_0" departPos="5.10" departSpeed="0.00" departDelay="0.72" arrival="223.00" arrivalLane="42_4way_17to4way_10_0" arrivalPos="85.60" arrivalSpeed="11.23" duration="88.00" routeLength="480.50" waitingTime="40.00" waitingCount="1" stopTime="0.00" timeLoss="48.70" rerouteNo="0" devices="tripinfo_47" vType="DEFAULT_VEHTYPE" speedFactor="0.90" vaporized=""/>
    <tripinfo id="79" depart="226.00" departLane="73_4way_32to4way_33_0" departPos="5.10" departSpeed="0.00" departDelay="0.29" arrival="236.00" arrivalLane="73_4way_32to4way_33_0" arrivalPos="85.60" arrivalSpeed="11.93" duration="10.00" routeLength="80.50" waitingTime="0.00" waitingCount="0" stopTime="0.00" timeLoss="3.39" rerouteNo="0" devices="tripinfo_79" vType="DEFAULT_VEHTYPE" speedFactor="0.90" vaporized=""/>
    <tripinfo id="78" depart="223.00" departLane="65_4way_32to4way_25_0" departPos="5.10" departSpeed="0.00" departDelay="0.15" arrival="242.00" arrivalLane="62_4way_25to4way_24_0" arrivalPos="85.60" arrivalSpeed="13.44" duration="19.00" routeLength="175.13" waitingTime="0.00" waitingCount="0" stopTime="0.00" timeLoss="6.24" rerouteNo="0" devices="tripinfo_78" vType="DEFAULT_VEHTYPE" speedFactor="1.03" vaporized=""/>
    <tripinfo id="63" depart="180.00" departLane="32_3way_44to3way_45_0" departPos="5.10" departSpeed="0.00" departDelay="0.00" arrival="246.00" arrivalLane="12_3way_27to3way_20_0" arrivalPos="85.60" arrivalSpeed="13.20" duration="66.00" routeLength="777.30" waitingTime="0.00" waitingCount="0" stopTime="0.00" timeLoss="6.35" rerouteNo="0" devices="tripinfo_63" vType="DEFAULT_VEHTYPE" speedFactor="0.95" vaporized=""/>
    <tripinfo id="31" depart="89.00" departLane="26_3way_5to3way_4_0" departPos="5.10" departSpeed="0.00" departDelay="0.43" arrival="257.00" arrivalLane="56_4way_18to4way_25_0" arrivalPos="85.60" arrivalSpeed="14.73" duration="168.00" routeLength="375.13" waitingTime="119.00" waitingCount="3" stopTime="0.00" timeLoss="143.01" rerouteNo="0" devices="tripinfo_31" vType="DEFAULT_VEHTYPE" speedFactor="1.11" vaporized=""/>
    <tripinfo id="55" depart="158.00" departLane="51_4way_16to4way_23_0" departPos="5.10" departSpeed="0.00" departDelay="0.86" arrival="257.00" arrivalLane="78_4way_38to4way_39_0" arrivalPos="85.60" arrivalSpeed="12.75" duration="99.00" routeLength="475.13" waitingTime="46.00" waitingCount="2" stopTime="0.00" timeLoss="61.78" rerouteNo="0" devices="tripinfo_55" vType="DEFAULT_VEHTYPE" speedFactor="0.94" vaporized=""/>
    <tripinfo id="75" depart="215.00" departLane="52_4way_9to4way_16_0" departPos="5.10" departSpeed="0.00" departDelay="0.72" arrival="257.00" arrivalLane="53_4way_17to4way_18_0" arrivalPos="85.60" arrivalSpeed="14.10" duration="42.00" routeLength="275.13" waitingTime="11.00" waitingCount="1" stopTime="0.00" timeLoss="22.66" rerouteNo="0" devices="tripinfo_75" vType="DEFAULT_VEHTYPE" speedFactor="1.09" vaporized=""/>
    <tripinfo id="77" depart="220.00" departLane="49_4way_8to4way_15_0" departPos="5.10" departSpeed="0.00" departDelay="0.00" arrival="257.00" arrivalLane="50_4way_16to4way_17_0" arrivalPos="85.60" arrivalSpeed="13.69" duration="37.00" routeLength="275.13" waitingTime="5.00" waitingCount="1" stopTime="0.00" timeLoss="15.35" rerouteNo="0" devices="tripinfo_77" vType="DEFAULT_VEHTYPE" speedFactor="0.99" vaporized=""/>
    <tripinfo id="66" depart="189.00" departLane="8_3way_7to3way_14_0" departPos="5.10" departSpeed="0.00" departDelay="0.43" arrival="258.00" arrivalLane="76_4way_36to4way_37_0" arrivalPos="85.60" arrivalSpeed="11.08" duration="69.00" routeLength="575.13" waitingTime="6.00" waitingCount="1" stopTime="0.00" timeLoss="19.23" rerouteNo="0" devices="tripinfo_66" vType="DEFAULT_VEHTYPE" speedFactor="0.86" vaporized=""/>
    <tripinfo id="40" depart="115.00" departLane="26_3way_5to3way_4_0" departPos="5.10" departSpeed="0.00" departDelay="0.72" arrival="259.00" arrivalLane="59_4way_22to4way_29_0" arrivalPos="85.60" arrivalSpeed="14.52" duration="144.00" routeLength="775.13" waitingTime="65.00" waitingCount="3" stopTime="0.00" timeLoss="91.06" rerouteNo="0" devices="tripinfo_40" vType="DEFAULT_VEHTYPE" speedFactor="1.08" vaporized=""/>
    <tripinfo id="49" depart="140.00" departLane="52_4way_9to4way_16_0" departPos="5.10" departSpeed="0.00" departDelay="0.00" arrival="263.00" arrivalLane="34_3way_45to3way_46_0" arrivalPos="85.60" arrivalSpeed="14.13" duration="123.00" routeLength="675.13" waitingTime="61.00" waitingCount="2" stopTime="0.00" timeLoss="77.35" rerouteNo="0" devices="tripinfo_49" vType="DEFAULT_VEHTYPE" speedFactor="1.08" vaporized=""/>
    <tripinfo id="59" depart="169.00" departLane="58_4way_23to4way_22_0" departPos="5.10" departSpeed="0.00" departDelay="0.43" arrival="264.00" arrivalLane="8_3way_14to3way_7_0" arrivalPos="85.60" arrivalSpeed="14.01" duration="95.00" routeLength="380.29" waitingTime="52.00" waitingCount="2" stopTime="0.00" timeLoss="67.77" rerouteNo="0" devices="tripinfo_59" vType="DEFAULT_VEHTYPE" speedFactor="1.03" vaporized=""/>
    <tripinfo id="32" depart="92.00" departLane="48_4way_15to4way_22_0" departPos="5.10" departSpeed="0.00" departDelay="0.57" arrival="265.00" arrivalLane="73_4way_32to4way_33_0" arrivalPos="85.60" arrivalSpeed="13.79" duration="173.00" routeLength="575.13" waitingTime="109.00" waitingCount="3" stopTime="0.00" timeLoss="130.23" rerouteNo="0" devices="tripinfo_32" vType="DEFAULT_VEHTYPE" speedFactor="1.00" vaporized=""/>
    <tripinfo id="43" depart="123.00" departLane="62_4way_24to4way_25_0" departPos="5.10" departSpeed="0.00" departDelay="0.14" arrival="266.00" arrivalLane="4_3way_20to3way_13_0" arrivalPos="85.60" arrivalSpeed="12.90" duration="143.00" routeLength="475.13" waitingTime="90.00" waitingCount="2" stopTime="0.00" timeLoss="106.39" rerouteNo="0" devices="tripinfo_43" vType="DEFAULT_VEHTYPE" speedFactor="0.97" vaporized=""/>
    <tripinfo id="76" depart="218.00" departLane="20_3way_4to3way_3_0" departPos="5.10" departSpeed="0.00" departDelay="0.86" arrival="270.00" arrivalLane="8_3way_7to3way_14_0" arrivalPos="85.60" arrivalSpeed="11.39" duration="52.00" routeLength="577.30" waitingTime="0.00" waitingCount="0" stopTime="0.00" timeLoss="5.17" rerouteNo="0" devices="tripinfo_76" vType="DEFAULT_VEHTYPE" speedFactor="0.90" vaporized=""/>
    <tripinfo id="95" depart="272.00" departLane="36_3way_46to3way_47_0" departPos="5.10" departSpeed="0.00" departDelay="0.57" arrival="282.00" arrivalLane="36_3way_46to3way_47_0" arrivalPos="85.60" arrivalSpeed="11.10" duration="10.00" routeLength="80.50" waitingTime="0.00" waitingCount="0" stopTime="0.00" timeLoss="2.98" rerouteNo="0" devices="tripinfo_95" vType="DEFAULT_VEHTYPE" speedFactor="0.88" vaporized=""/>
    <tripinfo id="93" depart="266.00" departLane="66_4way_26to4way_33_0" departPos="5.10" departSpeed="0.00" departDelay="0.29" arrival="285.00" arrivalLane="23_4way_33to3way_34_0" arrivalPos="85.60" arrivalSpeed="12.68" duration="19.00" routeLength="175.13" waitingTime="0.00" waitingCount="0" stopTime="0.00" timeLoss="5.11" rerouteNo="0" devices="tripinfo_93" vType="DEFAULT_VEHTYPE" speedFactor="1.00" vaporized=""/>
    <tripinfo id="80" depart="229.00" departLane="19_3way_28to4way_29_0" departPos="5.10" departSpeed="0.00" departDelay="0.43" arrival="292.00" arrivalLane="3_4way_8to3way_1_0" arrivalPos="85.60" arrivalSpeed="9.95" duration="63.00" routeLength="475.13" waitingTime="8.00" waitingCount="1" stopTime="0.00" timeLoss="16.64" rerouteNo="0" devices="tripinfo_80" vType="DEFAULT_VEHTYPE" speedFactor="0.78" vaporized=""/>
    <tripinfo id="99" depart="283.00" departLane="20_3way_4to3way_3_0" departPos="5.10" departSpeed="0.00" departDelay="0.15" arrival="301.00" arrivalLane="10_3way_3to3way_2_0" arrivalPos="85.60" arrivalSpeed="13.49" duration="18.00" routeLength="180.50" waitingTime="0.00" waitingCount="0" stopTime="0.00" timeLoss="4.05" rerouteNo="0" devices="tripinfo_99" vType="DEFAULT_VEHTYPE" speedFactor="0.97" vaporized=""/>
    <tripinfo id="100" depart="286.00" departLane="80_4way_8to4way_9_0" departPos="5.10" departSpeed="0.00" departDelay="0.29" arrival="301.00" arrivalLane="43_4way_9to4way_10_0" arrivalPos="85.60" arrivalSpeed="15.64" duration="15.00" routeLength="180.50" waitingTime="0.00" waitingCount="0" stopTime="0.00" timeLoss="3.95" rerouteNo="0" devices="tripinfo_100" vType="DEFAULT_VEHTYPE" speedFactor="1.20" vaporized=""/>