<?xml version="1.0" encoding="UTF-8"?>

<!-- generated on 2023-07-28 04:35:13 by Eclipse SUMO sumo Version 1.12.0
<configuration xmlns:xsi="http://www.w3.org/2001/XMLSchema-instance" xsi:noNamespaceSchemaLocation="http://sumo.dlr.de/xsd/sumoConfiguration.xsd">

    <input>
        <net-file value="../../data_generation/sq.net.xml"/>
        <route-files value="../../data_generation/sq.rou.xml"/>
    </input>

    <output>
        <tripinfo-output value="tripinfo.xml"/>
        <statistic-output value="statistic.xml"/>
    </output>

    <time>
        <begin value="0"/>
        <end value="3600"/>
    </time>

    <processing>
        <time-to-teleport value="-1"/>
    </processing>

    <traci_server>
        <remote-port value="51619"/>
    </traci_server>

    <random_number>
        <seed value="1395"/>
    </random_number>

    <gui_only>
        <gui-settings-file value="../../data_generation/view_HY_0402.xml"/>
    </gui_only>

</configuration>
-->

<tripinfos xmlns:xsi="http://www.w3.org/2001/XMLSchema-instance" xsi:noNamespaceSchemaLocation="http://sumo.dlr.de/xsd/tripinfo_file.xsd">
    <tripinfo id="7" depart="2.00" departLane="32_3way_6to3way_5_0" departPos="5.10" departSpeed="0.00" departDelay="0.25" arrival="11.00" arrivalLane="32_3way_6to3way_5_0" arrivalPos="85.60" arrivalSpeed="11.92" duration="9.00" routeLength="80.50" waitingTime="0.00" waitingCount="0" stopTime="0.00" timeLoss="2.83" rerouteNo="0" devices="tripinfo_7" vType="DEFAULT_VEHTYPE" speedFactor="0.95" vaporized=""/>
    <tripinfo id="9" depart="3.00" departLane="99_4way_45to4way_44_0" departPos="5.10" departSpeed="0.00" departDelay="0.75" arrival="13.00" arrivalLane="99_4way_45to4way_44_0" arrivalPos="85.60" arrivalSpeed="11.98" duration="10.00" routeLength="80.50" waitingTime="0.00" waitingCount="0" stopTime="0.00" timeLoss="3.05" rerouteNo="0" devices="tripinfo_9" vType="DEFAULT_VEHTYPE" speedFactor="0.91" vaporized=""/>
    <tripinfo id="13" depart="4.00" departLane="19_4way_30to3way_31_0" departPos="5.10" departSpeed="0.00" departDelay="0.75" arrival="13.00" arrivalLane="19_4way_30to3way_31_0" arrivalPos="85.60" arrivalSpeed="12.71" duration="9.00" routeLength="80.50" waitingTime="0.00" waitingCount="0" stopTime="0.00" timeLoss="2.86" rerouteNo="0" devices="tripinfo_13" vType="DEFAULT_VEHTYPE" speedFactor="0.98" vaporized=""/>
    <tripinfo id="20" depart="5.00" departLane="15_4way_25to3way_24_0" departPos="5.10" departSpeed="0.00" departDelay="0.00" arrival="14.00" arrivalLane="15_4way_25to3way_24_0" arrivalPos="85.60" arrivalSpeed="11.79" duration="9.00" routeLength="80.50" waitingTime="0.00" waitingCount="0" stopTime="0.00" timeLoss="2.34" rerouteNo="0" devices="tripinfo_20" vType="DEFAULT_VEHTYPE" speedFactor="0.89" vaporized=""/>
    <tripinfo id="18" depart="8.00" departLane="53_4way_19to4way_11_0" departPos="5.10" departSpeed="0.00" departDelay="3.50" arrival="18.00" arrivalLane="53_4way_19to4way_11_0" arrivalPos="85.60" arrivalSpeed="12.14" duration="10.00" routeLength="80.50" waitingTime="0.00" waitingCount="0" stopTime="0.00" timeLoss="3.34" rerouteNo="0" devices="tripinfo_18" vType="DEFAULT_VEHTYPE" speedFactor="0.96" vaporized=""/>
    <tripinfo id="66" depart="17.00" departLane="96_4way_50to4way_42_0" departPos="5.10" departSpeed="0.00" departDelay="0.50" arrival="27.00" arrivalLane="96_4way_50to4way_42_0" arrivalPos="85.60" arrivalSpeed="11.33" duration="10.00" routeLength="80.50" waitingTime="0.00" waitingCount="0" stopTime="0.00" timeLoss="2.77" rerouteNo="0" devices="tripinfo_66" vType="DEFAULT_VEHTYPE" speedFactor="0.86" vaporized=""/>
    <tripinfo id="71" depart="18.00" departLane="54_4way_12to4way_13_0" departPos="5.10" departSpeed="0.00" departDelay="0.25" arrival="27.00" arrivalLane="54_4way_12to4way_13_0" arrivalPos="85.60" arrivalSpeed="14.46" duration="9.00" routeLength="80.50" waitingTime="0.00" waitingCount="0" stopTime="0.00" timeLoss="3.29" rerouteNo="0" devices="tripinfo_71" vType="DEFAULT_VEHTYPE" speedFactor="1.13" vaporized=""/>
    <tripinfo id="10" depart="3.00" departLane="107_4way_52to4way_53_0" departPos="5.10" departSpeed="0.00" departDelay="0.50" arrival="29.00" arrivalLane="103_4way_54to4way_46_0" arrivalPos="85.60" arrivalSpeed="13.71" duration="26.00" routeLength="275.13" waitingTime="0.00" waitingCount="0" stopTime="0.00" timeLoss="6.14" rerouteNo="0" devices="tripinfo_10" vType="DEFAULT_VEHTYPE" speedFactor="1.04" vaporized=""/>
    <tripinfo id="17" depart="5.00" departLane="53_4way_19to4way_11_0" departPos="5.10" departSpeed="0.00" departDelay="0.75" arrival="32.00" arrivalLane="10_3way_3to3way_2_0" arrivalPos="85.60" arrivalSpeed="14.01" duration="27.00" routeLength="275.13" waitingTime="0.00" waitingCount="0" stopTime="0.00" timeLoss="6.41" rerouteNo="0" devices="tripinfo_17" vType="DEFAULT_VEHTYPE" speedFactor="1.04" vaporized=""/>
    <tripinfo id="23" depart="6.00" departLane="14_3way_24to3way_32_0" departPos="5.10" departSpeed="0.00" departDelay="0.25" arrival="33.00" arrivalLane="26_3way_40to3way_48_0" arrivalPos="85.60" arrivalSpeed="11.19" duration="27.00" routeLength="280.50" waitingTime="0.00" waitingCount="0" stopTime="0.00" timeLoss="3.37" rerouteNo="0" devices="tripinfo_23" vType="DEFAULT_VEHTYPE" speedFactor="0.87" vaporized=""/>
    <tripinfo id="72" depart="18.00" departLane="13_4way_22to3way_23_0" departPos="5.10" departSpeed="0.00" departDelay="0.00" arrival="36.00" arrivalLane="4_3way_23to3way_15_0" arrivalPos="85.60" arrivalSpeed="15.91" duration="18.00" routeLength="175.13" waitingTime="0.00" waitingCount="0" stopTime="0.00" timeLoss="5.76" rerouteNo="0" devices="tripinfo_72" vType="DEFAULT_VEHTYPE" speedFactor="1.15" vaporized=""/>
    <tripinfo id="67" depart="17.00" departLane="84_4way_35to4way_34_0" departPos="5.10" departSpeed="0.00" departDelay="0.25" arrival="37.00" arrivalLane="85_4way_34to4way_42_0" arrivalPos="85.60" arrivalSpeed="12.20" duration="20.00" routeLength="175.13" waitingTime="0.00" waitingCount="0" stopTime="0.00" timeLoss="4.51" rerouteNo="0" devices="tripinfo_67" vType="DEFAULT_VEHTYPE" speedFactor="0.88" vaporized=""/>
    <tripinfo id="118" depart="30.00" departLane="39_4way_50to3way_58_0" departPos="5.10" departSpeed="0.00" departDelay="0.50" arrival="40.00" arrivalLane="39_4way_50to3way_58_0" arrivalPos="85.60" arrivalSpeed="13.30" duration="10.00" routeLength="80.50" waitingTime="0.00" waitingCount="0" stopTime="0.00" timeLoss="3.89" rerouteNo="0" devices="tripinfo_118" vType="DEFAULT_VEHTYPE" speedFactor="1.05" vaporized=""/>
    <tripinfo id="44" depart="11.00" departLane="95_4way_43to4way_42_0" departPos="5.10" departSpeed="0.00" departDelay="0.00" arrival="41.00" arrivalLane="27_4way_41to3way_40_0" arrivalPos="85.60" arrivalSpeed="10.57" duration="30.00" routeLength="280.50" waitingTime="0.00" waitingCount="0" stopTime="0.00" timeLoss="3.83" rerouteNo="0" devices="tripinfo_44" vType="DEFAULT_VEHTYPE" speedFactor="0.78" vaporized=""/>
    <tripinfo id="59" depart="15.00" departLane="50_4way_10to4way_18_0" departPos="5.10" departSpeed="0.00" departDelay="0.25" arrival="41.00" arrivalLane="64_4way_19to4way_20_0" arrivalPos="85.60" arrivalSpeed="13.65" duration="26.00" routeLength="275.13" waitingTime="0.00" waitingCount="0" stopTime="0.00" timeLoss="5.57" rerouteNo="0" devices="tripinfo_59" vType="DEFAULT_VEHTYPE" speedFactor="1.03" vaporized=""/>
    <tripinfo id="97" depart="25.00" departLane="40_3way_59to3way_60_0" departPos="5.10" departSpeed="0.00" departDelay="0.75" arrival="41.00" arrivalLane="43_3way_60to3way_61_0" arrivalPos="85.60" arrivalSpeed="13.56" duration="16.00" routeLength="180.50" waitingTime="0.00" waitingCount="0" stopTime="0.00" timeLoss="3.35" rerouteNo="0" devices="tripinfo_97" vType="DEFAULT_VEHTYPE" speedFactor="1.06" vaporized=""/>
    <tripinfo id="125" depart="32.00" departLane="78_4way_28to4way_36_0" departPos="5.10" departSpeed="0.00" departDelay="0.75" arrival="42.00" arrivalLane="78_4way_28to4way_36_0" arrivalPos="85.60" arrivalSpeed="13.01" duration="10.00" routeLength="80.50" waitingTime="0.00" waitingCount="0" stopTime="0.00" timeLoss="3.19" rerouteNo="0" devices="tripinfo_125" vType="DEFAULT_VEHTYPE" speedFactor="0.95" vaporized=""/>
    <tripinfo id="126" depart="32.00" departLane="42_3way_6to4way_14_0" departPos="5.10" departSpeed="0.00" departDelay="0.50" arrival="42.00" arrivalLane="42_3way_6to4way_14_0" arrivalPos="85.60" arrivalSpeed="13.82" duration="10.00" routeLength="80.50" waitingTime="0.00" waitingCount="0" stopTime="0.00" timeLoss="3.29" rerouteNo="0" devices="tripinfo_126" vType="DEFAULT_VEHTYPE" speedFactor="1.01" vaporized=""/>
    <tripinfo id="132" depart="34.00" departLane="39_4way_50to3way_58_0" departPos="5.10" departSpeed="0.00" departDelay="1.00" arrival="44.00" arrivalLane="39_4way_50to3way_58_0" arrivalPos="85.60" arrivalSpeed="11.05" duration="10.00" routeLength="80.50" waitingTime="0.00" waitingCount="0" stopTime="0.00" timeLoss="2.73" rerouteNo="0" devices="tripinfo_132" vType="DEFAULT_VEHTYPE" speedFactor="0.86" vaporized=""/>
    <tripinfo id="148" depart="37.00" departLane="92_4way_38to4way_46_0" departPos="5.10" departSpeed="0.00" departDelay="0.00" arrival="46.00" arrivalLane="92_4way_38to4way_46_0" arrivalPos="85.60" arrivalSpeed="13.63" duration="9.00" routeLength="80.50" waitingTime="0.00" waitingCount="0" stopTime="0.00" timeLoss="3.37" rerouteNo="0" devices="tripinfo_148" vType="DEFAULT_VEHTYPE" speedFactor="1.07" vaporized=""/>
    <tripinfo id="99" depart="25.00" departLane="105_4way_51to4way_50_0" departPos="5.10" departSpeed="0.00" departDelay="0.25" arrival="49.00" arrivalLane="31_4way_49to3way_48_0" arrivalPos="85.60" arrivalSpeed="12.57" duration="24.00" routeLength="280.50" waitingTime="0.00" waitingCount="0" stopTime="0.00" timeLoss="3.15" rerouteNo="0" devices="tripinfo_99" vType="DEFAULT_VEHTYPE" speedFactor="0.97" vaporized=""/>
    <tripinfo id="39" depart="10.00" departLane="48_4way_9to3way_8_0" departPos="5.10" departSpeed="0.00" departDelay="0.25" arrival="50.00" arrivalLane="20_3way_32to3way_40_0" arrivalPos="85.60" arrivalSpeed="13.62" duration="40.00" routeLength="475.13" waitingTime="0.00" waitingCount="0" stopTime="0.00" timeLoss="6.32" rerouteNo="0" devices="tripinfo_39" vType="DEFAULT_VEHTYPE" speedFactor="1.05" vaporized=""/>
    <tripinfo id="162" depart="41.00" departLane="98_4way_51to4way_43_0" departPos="5.10" departSpeed="0.00" departDelay="0.50" arrival="50.00" arrivalLane="98_4way_51to4way_43_0" arrivalPos="85.60" arrivalSpeed="13.34" duration="9.00" routeLength="80.50" waitingTime="0.00" waitingCount="0" stopTime="0.00" timeLoss="2.96" rerouteNo="0" devices="tripinfo_162" vType="DEFAULT_VEHTYPE" speedFactor="0.96" vaporized=""/>
    <tripinfo id="167" depart="42.00" departLane="39_3way_58to4way_50_0" departPos="5.10" departSpeed="0.00" departDelay="0.25" arrival="52.00" arrivalLane="39_3way_58to4way_50_0" arrivalPos="85.60" arrivalSpeed="11.17" duration="10.00" routeLength="80.50" waitingTime="0.00" waitingCount="0" stopTime="0.00" timeLoss="3.03" rerouteNo="0" devices="tripinfo_167" vType="DEFAULT_VEHTYPE" speedFactor="0.85" vaporized=""/>
    <tripinfo id="107" depart="27.00" departLane="8_3way_8to3way_16_0" departPos="5.10" departSpeed="0.00" departDelay="0.25" arrival="57.00" arrivalLane="20_3way_32to3way_40_0" arrivalPos="85.60" arrivalSpeed="14.13" duration="30.00" routeLength="380.50" waitingTime="0.00" waitingCount="0" stopTime="0.00" timeLoss="4.19" rerouteNo="0" devices="tripinfo_107" vType="DEFAULT_VEHTYPE" speedFactor="1.10" vaporized=""/>
    <tripinfo id="95" depart="24.00" departLane="81_4way_30to4way_38_0" departPos="5.10" departSpeed="0.00" departDelay="0.25" arrival="63.00" arrivalLane="28_3way_47to3way_55_0" arrivalPos="85.60" arrivalSpeed="11.36" duration="39.00" routeLength="374.92" waitingTime="0.00" waitingCount="0" stopTime="0.00" timeLoss="6.98" rerouteNo="0" devices="tripinfo_95" vType="DEFAULT_VEHTYPE" speedFactor="0.88" vaporized=""/>
    <tripinfo id="179" depart="45.00" departLane="82_4way_33to4way_34_0" departPos="5.10" departSpeed="0.00" departDelay="0.25" arrival="64.00" arrivalLane="74_4way_34to4way_26_0" arrivalPos="85.60" arrivalSpeed="12.80" duration="19.00" routeLength="175.13" waitingTime="0.00" waitingCount="0" stopTime="0.00" timeLoss="5.45" rerouteNo="0" devices="tripinfo_179" vType="DEFAULT_VEHTYPE" speedFactor="0.97" vaporized=""/>
    <tripinfo id="184" depart="46.00" departLane="76_4way_27to4way_35_0" departPos="5.10" departSpeed="0.00" departDelay="0.00" arrival="65.00" arrivalLane="86_4way_35to4way_36_0" arrivalPos="85.60" arrivalSpeed="13.98" duration="19.00" routeLength="175.13" waitingTime="0.00" waitingCount="0" stopTime="0.00" timeLoss="5.42" rerouteNo="0" devices="tripinfo_184" vType="DEFAULT_VEHTYPE" speedFactor="1.02" vaporized=""/>
    <tripinfo id="190" depart="48.00" departLane="56_4way_14to4way_13_0" departPos="5.10" departSpeed="0.00" departDelay="0.50" arrival="66.00" arrivalLane="57_4way_13to4way_21_0" arrivalPos="85.60" arrivalSpeed="13.74" duration="18.00" routeLength="175.13" waitingTime="0.00" waitingCount="0" stopTime="0.00" timeLoss="5.44" rerouteNo="0" devices="tripinfo_190" vType="DEFAULT_VEHTYPE" speedFactor="1.08" vaporized=""/>
    <tripinfo id="207" depart="57.00" departLane="103_4way_54to4way_46_0" departPos="5.10" departSpeed="0.00" departDelay="5.25" arrival="66.00" arrivalLane="103_4way_54to4way_46_0" arrivalPos="85.60" arrivalSpeed="16.74" duration="9.00" routeLength="80.50" waitingTime="0.00" waitingCount="0" stopTime="0.00" timeLoss="4.21" rerouteNo="0" devices="tripinfo_207" vType="DEFAULT_VEHTYPE" speedFactor="1.24" vaporized=""/>
    <tripinfo id="157" depart="40.00" departLane="74_4way_34to4way_26_0" departPos="5.10" departSpeed="0.00" departDelay="0.75" arrival="68.00" arrivalLane="59_4way_18to4way_17_0" arrivalPos="85.60" arrivalSpeed="12.53" duration="28.00" routeLength="275.13" waitingTime="0.00" waitingCount="0" stopTime="0.00" timeLoss="6.01" rerouteNo="0" devices="tripinfo_157" vType="DEFAULT_VEHTYPE" speedFactor="0.94" vaporized=""/>
    <tripinfo id="202" depart="51.00" departLane="61_4way_17to4way_9_0" departPos="5.10" departSpeed="0.00" departDelay="0.50" arrival="69.00" arrivalLane="3_4way_9to3way_1_0" arrivalPos="85.60" arrivalSpeed="11.70" duration="18.00" routeLength="180.50" waitingTime="0.00" waitingCount="0" stopTime="0.00" timeLoss="3.11" rerouteNo="0" devices="tripinfo_202" vType="DEFAULT_VEHTYPE" speedFactor="0.90" vaporized=""/>
    <tripinfo id="25" depart="7.00" departLane="6_3way_15to4way_14_0" departPos="5.10" departSpeed="0.00" departDelay="0.75" arrival="70.00" arrivalLane="103_4way_46to4way_54_0" arrivalPos="85.60" arrivalSpeed="6.02" duration="63.00" routeLength="575.13" waitingTime="8.00" waitingCount="1" stopTime="0.00" timeLoss="18.72" rerouteNo="0" devices="tripinfo_25" vType="DEFAULT_VEHTYPE" speedFactor="0.95" vaporized=""/>
    <tripinfo id="52" depart="16.00" departLane="96_4way_42to4way_50_0" departPos="5.10" departSpeed="0.00" departDelay="3.00" arrival="70.00" arrivalLane="96_4way_42to4way_50_0" arrivalPos="85.60" arrivalSpeed="5.35" duration="54.00" routeLength="80.50" waitingTime="39.00" waitingCount="1" stopTime="0.00" timeLoss="48.28" rerouteNo="0" devices="tripinfo_52" vType="DEFAULT_VEHTYPE" speedFactor="1.03" vaporized=""/>
    <tripinfo id="81" depart="26.00" departLane="91_4way_37to4way_45_0" departPos="5.10" departSpeed="0.00" departDelay="5.75" arrival="70.00" arrivalLane="101_4way_45to4way_46_0" arrivalPos="85.60" arrivalSpeed="5.97" duration="44.00" routeLength="175.13" waitingTime="22.00" waitingCount="1" stopTime="0.00" timeLoss="31.39" rerouteNo="0" devices="tripinfo_81" vType="DEFAULT_VEHTYPE" speedFactor="1.05" vaporized=""/>
    <tripinfo id="60" depart="15.00" departLane="76_4way_27to4way_35_0" departPos="5.10" departSpeed="0.00" departDelay="0.00" arrival="71.00" arrivalLane="90_4way_37to4way_38_0" arrivalPos="85.60" arrivalSpeed="6.09" duration="56.00" routeLength="375.13" waitingTime="15.00" waitingCount="1" stopTime="0.00" timeLoss="31.02" rerouteNo="0" devices="tripinfo_60" vType="DEFAULT_VEHTYPE" speedFactor="1.12" vaporized=""/>
    <tripinfo id="242" depart="61.00" departLane="39_4way_50to3way_58_0" departPos="5.10" departSpeed="0.00" departDelay="0.50" arrival="71.00" arrivalLane="39_4way_50to3way_58_0" arrivalPos="85.60" arrivalSpeed="13.03" duration="10.00" routeLength="80.50" waitingTime="0.00" waitingCount="0" stopTime="0.00" timeLoss="3.60" rerouteNo="0" devices="tripinfo_242" vType="DEFAULT_VEHTYPE" speedFactor="0.98" vaporized=""/>
    <tripinfo id="104" depart="26.00" departLane="45_3way_61to3way_62_0" departPos="5.10" departSpeed="0.00" departDelay="0.00" arrival="72.00" arrivalLane="47_3way_62to4way_54_0" arrivalPos="85.60" arrivalSpeed="7.64" duration="46.00" routeLength="175.13" waitingTime="21.00" waitingCount="1" stopTime="0.00" timeLoss="32.19" rerouteNo="0" devices="tripinfo_104" vType="DEFAULT_VEHTYPE" speedFactor="0.95" vaporized=""/>
    <tripinfo id="131" depart="35.00" departLane="100_4way_52to4way_44_0" departPos="5.10" departSpeed="0.00" departDelay="2.25" arrival="72.00" arrivalLane="97_4way_44to4way_43_0" arrivalPos="85.60" arrivalSpeed="7.24" duration="37.00" routeLength="175.13" waitingTime="10.00" waitingCount="1" stopTime="0.00" timeLoss="20.62" rerouteNo="0" devices="tripinfo_131" vType="DEFAULT_VEHTYPE" speedFactor="0.82" vaporized=""/>
    <tripinfo id="134" depart="39.00" departLane="101_4way_45to4way_46_0" departPos="5.10" departSpeed="0.00" departDelay="5.50" arrival="73.00" arrivalLane="101_4way_45to4way_46_0" arrivalPos="85.60" arrivalSpeed="8.59" duration="34.00" routeLength="80.50" waitingTime="19.00" waitingCount="1" stopTime="0.00" timeLoss="27.68" rerouteNo="0" devices="tripinfo_134" vType="DEFAULT_VEHTYPE" speedFactor="1.00" vaporized=""/>
    <tripinfo id="156" depart="39.00" departLane="44_3way_60to4way_52_0" departPos="5.10" departSpeed="0.00" departDelay="0.00" arrival="74.00" arrivalLane="97_4way_44to4way_43_0" arrivalPos="85.60" arrivalSpeed="9.47" duration="35.00" routeLength="275.13" waitingTime="2.00" waitingCount="1" stopTime="0.00" timeLoss="12.09" rerouteNo="0" devices="tripinfo_156" vType="DEFAULT_VEHTYPE" speedFactor="0.91" vaporized=""/>
    <tripinfo id="214" depart="54.00" departLane="59_4way_17to4way_18_0" departPos="5.10" departSpeed="0.00" departDelay="0.50" arrival="74.00" arrivalLane="59_4way_17to4way_18_0" arrivalPos="85.60" arrivalSpeed="8.83" duration="20.00" routeLength="80.50" waitingTime="5.00" waitingCount="1" stopTime="0.00" timeLoss="14.20" rerouteNo="0" devices="tripinfo_214" vType="DEFAULT_VEHTYPE" speedFactor="1.00" vaporized=""/>
    <tripinfo id="204" depart="54.00" departLane="40_3way_59to3way_60_0" departPos="5.10" departSpeed="0.00" departDelay="3.00" arrival="75.00" arrivalLane="43_3way_60to3way_61_0" arrivalPos="85.60" arrivalSpeed="8.35" duration="21.00" routeLength="180.50" waitingTime="0.00" waitingCount="0" stopTime="0.00" timeLoss="8.85" rerouteNo="0" devices="tripinfo_204" vType="DEFAULT_VEHTYPE" speedFactor="1.12" vaporized=""/>
    <tripinfo id="53" depart="14.00" departLane="90_4way_38to4way_37_0" departPos="5.10" departSpeed="0.00" departDelay="0.75" arrival="76.00" arrivalLane="46_4way_53to3way_61_0" arrivalPos="85.60" arrivalSpeed="16.76" duration="62.00" routeLength="375.13" waitingTime="26.00" waitingCount="1" stopTime="0.00" timeLoss="39.95" rerouteNo="0" devices="tripinfo_53" vType="DEFAULT_VEHTYPE" speedFactor="1.27" vaporized=""/>
    <tripinfo id="155" depart="39.00" departLane="32_3way_6to3way_5_0" departPos="5.10" departSpeed="0.00" departDelay="0.25" arrival="76.00" arrivalLane="32_3way_6to3way_5_0" arrivalPos="85.60" arrivalSpeed="5.13" duration="37.00" routeLength="80.50" waitingTime="20.00" waitingCount="1" stopTime="0.00" timeLoss="30.86" rerouteNo="0" devices="tripinfo_155" vType="DEFAULT_VEHTYPE" speedFactor="0.94" vaporized=""/>
    <tripinfo id="14" depart="4.00" departLane="61_4way_9to4way_17_0" departPos="5.10" departSpeed="0.00" departDelay="0.50" arrival="77.00" arrivalLane="59_4way_17to4way_18_0" arrivalPos="85.60" arrivalSpeed="12.28" duration="73.00" routeLength="175.13" waitingTime="51.00" waitingCount="1" stopTime="0.00" timeLoss="58.83" rerouteNo="0" devices="tripinfo_14" vType="DEFAULT_VEHTYPE" speedFactor="0.95" vaporized=""/>
    <tripinfo id="45" depart="12.00" departLane="55_4way_12to4way_20_0" departPos="5.10" departSpeed="0.00" departDelay="0.75" arrival="77.00" arrivalLane="13_4way_22to3way_23_0" arrivalPos="85.60" arrivalSpeed="12.79" duration="65.00" routeLength="375.13" waitingTime="26.00" waitingCount="1" stopTime="0.00" timeLoss="36.72" rerouteNo="0" devices="tripinfo_45" vType="DEFAULT_VEHTYPE" speedFactor="1.00" vaporized=""/>
    <tripinfo id="50" depart="13.00" departLane="81_4way_38to4way_30_0" departPos="5.10" departSpeed="0.00" departDelay="0.50" arrival="77.00" arrivalLane="77_4way_29to4way_28_0" arrivalPos="85.60" arrivalSpeed="13.10" duration="64.00" routeLength="275.13" waitingTime="33.00" waitingCount="1" stopTime="0.00" timeLoss="43.81" rerouteNo="0" devices="tripinfo_50" vType="DEFAULT_VEHTYPE" speedFactor="1.01" vaporized=""/>
    <tripinfo id="64" depart="16.00" departLane="59_4way_17to4way_18_0" departPos="5.10" departSpeed="0.00" departDelay="0.00" arrival="77.00" arrivalLane="62_4way_18to4way_19_0" arrivalPos="85.60" arrivalSpeed="12.99" duration="61.00" routeLength="180.50" waitingTime="38.00" waitingCount="1" stopTime="0.00" timeLoss="47.16" rerouteNo="0" devices="tripinfo_64" vType="DEFAULT_VEHTYPE" speedFactor="0.96" vaporized=""/>
    <tripinfo id="86" depart="22.00" departLane="46_3way_61to4way_53_0" departPos="5.10" departSpeed="0.00" departDelay="0.50" arrival="77.00" arrivalLane="107_4way_53to4way_52_0" arrivalPos="85.60" arrivalSpeed="14.01" duration="55.00" routeLength="175.13" waitingTime="32.00" waitingCount="1" stopTime="0.00" timeLoss="41.87" rerouteNo="0" devices="tripinfo_86" vType="DEFAULT_VEHTYPE" speedFactor="1.06" vaporized=""/>
    <tripinfo id="117" depart="30.00" departLane="72_4way_33to4way_25_0" departPos="5.10" departSpeed="0.00" departDelay="0.75" arrival="77.00" arrivalLane="9_4way_17to3way_16_0" arrivalPos="85.60" arrivalSpeed="12.13" duration="47.00" routeLength="275.13" waitingTime="16.00" waitingCount="1" stopTime="0.00" timeLoss="24.08" rerouteNo="0" devices="tripinfo_117" vType="DEFAULT_VEHTYPE" speedFactor="0.91" vaporized=""/>
    <tripinfo id="216" depart="54.00" departLane="51_4way_9to4way_10_0" departPos="5.10" departSpeed="0.00" departDelay="0.00" arrival="77.00" arrivalLane="52_4way_11to4way_12_0" arrivalPos="85.60" arrivalSpeed="14.94" duration="23.00" routeLength="280.50" waitingTime="0.00" waitingCount="0" stopTime="0.00" timeLoss="4.38" rerouteNo="0" devices="tripinfo_216" vType="DEFAULT_VEHTYPE" speedFactor="1.10" vaporized=""/>
    <tripinfo id="12" depart="3.00" departLane="75_4way_27to4way_28_0" departPos="5.10" departSpeed="0.00" departDelay="0.00" arrival="78.00" arrivalLane="13_4way_22to3way_23_0" arrivalPos="85.60" arrivalSpeed="15.56" duration="75.00" routeLength="474.93" waitingTime="23.00" waitingCount="2" stopTime="0.00" timeLoss="44.06" rerouteNo="0" devices="tripinfo_12" vType="DEFAULT_VEHTYPE" speedFactor="1.16" vaporized=""/>
    <tripinfo id="16" depart="4.00" departLane="85_4way_42to4way_34_0" departPos="5.10" departSpeed="0.00" departDelay="0.00" arrival="78.00" arrivalLane="82_4way_34to4way_33_0" arrivalPos="85.60" arrivalSpeed="12.04" duration="74.00" routeLength="175.13" waitingTime="50.00" waitingCount="1" stopTime="0.00" timeLoss="58.76" rerouteNo="0" devices="tripinfo_16" vType="DEFAULT_VEHTYPE" speedFactor="0.90" vaporized=""/>
    <tripinfo id="1" depart="1.00" departLane="73_4way_26to4way_27_0" departPos="5.10" departSpeed="0.00" departDelay="0.75" arrival="79.00" arrivalLane="53_4way_19to4way_11_0" arrivalPos="85.60" arrivalSpeed="13.81" duration="78.00" routeLength="275.13" waitingTime="45.00" waitingCount="1" stopTime="0.00" timeLoss="57.87" rerouteNo="0" devices="tripinfo_1" vType="DEFAULT_VEHTYPE" speedFactor="1.04" vaporized=""/>
    <tripinfo id="90" depart="23.00" departLane="44_3way_60to4way_52_0" departPos="5.10" departSpeed="0.00" departDelay="0.50" arrival="79.00" arrivalLane="95_4way_43to4way_42_0" arrivalPos="85.60" arrivalSpeed="12.15" duration="56.00" routeLength="375.13" waitingTime="16.00" waitingCount="1" stopTime="0.00" timeLoss="26.36" rerouteNo="0" devices="tripinfo_90" vType="DEFAULT_VEHTYPE" speedFactor="0.95" vaporized=""/>
    <tripinfo id="127" depart="36.00" departLane="96_4way_50to4way_42_0" departPos="5.10" departSpeed="0.00" departDelay="4.25" arrival="81.00" arrivalLane="85_4way_42to4way_34_0" arrivalPos="85.60" arrivalSpeed="12.67" duration="45.00" routeLength="180.50" waitingTime="23.00" waitingCount="1" stopTime="0.00" timeLoss="31.04" rerouteNo="0" devices="tripinfo_127" vType="DEFAULT_VEHTYPE" speedFactor="1.00" vaporized=""/>
    <tripinfo id="256" depart="64.00" departLane="99_4way_45to4way_44_0" departPos="5.10" departSpeed="0.00" departDelay="0.00" arrival="81.00" arrivalLane="97_4way_44to4way_43_0" arrivalPos="85.60" arrivalSpeed="14.15" duration="17.00" routeLength="180.50" waitingTime="0.00" waitingCount="0" stopTime="0.00" timeLoss="3.87" rerouteNo="0" devices="tripinfo_256" vType="DEFAULT_VEHTYPE" speedFactor="1.03" vaporized=""/>
    <tripinfo id="101" depart="26.00" departLane="24_3way_5to3way_4_0" departPos="5.10" departSpeed="0.00" departDelay="0.75" arrival="82.00" arrivalLane="10_3way_3to3way_2_0" arrivalPos="85.60" arrivalSpeed="12.02" duration="56.00" routeLength="280.50" waitingTime="25.00" waitingCount="1" stopTime="0.00" timeLoss="35.75" rerouteNo="0" devices="tripinfo_101" vType="DEFAULT_VEHTYPE" speedFactor="1.03" vaporized=""/>
    <tripinfo id="278" depart="72.00" departLane="101_4way_45to4way_46_0" departPos="5.10" departSpeed="0.00" departDelay="2.50" arrival="82.00" arrivalLane="101_4way_45to4way_46_0" arrivalPos="85.60" arrivalSpeed="12.16" duration="10.00" routeLength="80.50" waitingTime="0.00" waitingCount="0" stopTime="0.00" timeLoss="2.82" rerouteNo="0" devices="tripinfo_278" vType="DEFAULT_VEHTYPE" speedFactor="0.91" vaporized=""/>
    <tripinfo id="61" depart="18.00" departLane="49_4way_11to4way_10_0" departPos="5.10" departSpeed="0.00" departDelay="2.75" arrival="83.00" arrivalLane="61_4way_9to4way_17_0" arrivalPos="85.60" arrivalSpeed="11.18" duration="65.00" routeLength="275.13" waitingTime="30.00" waitingCount="1" stopTime="0.00" timeLoss="44.21" rerouteNo="0" devices="tripinfo_61" vType="DEFAULT_VEHTYPE" speedFactor="1.01" vaporized=""/>
    <tripinfo id="92" depart="23.00" departLane="96_4way_50to4way_42_0" departPos="5.10" departSpeed="0.00" departDelay="0.00" arrival="83.00" arrivalLane="74_4way_34to4way_26_0" arrivalPos="85.60" arrivalSpeed="14.66" duration="60.00" routeLength="280.50" waitingTime="31.00" waitingCount="1" stopTime="0.00" timeLoss="41.46" rerouteNo="0" devices="tripinfo_92" vType="DEFAULT_VEHTYPE" speedFactor="1.13" vaporized=""/>
    <tripinfo id="15" depart="4.00" departLane="97_4way_44to4way_43_0" departPos="5.10" departSpeed="0.00" departDelay="0.25" arrival="84.00" arrivalLane="41_4way_51to3way_59_0" arrivalPos="85.60" arrivalSpeed="13.92" duration="80.00" routeLength="275.13" waitingTime="51.00" waitingCount="1" stopTime="0.00" timeLoss="60.02" rerouteNo="0" devices="tripinfo_15" vType="DEFAULT_VEHTYPE" speedFactor="1.05" vaporized=""/>
    <tripinfo id="254" depart="64.00" departLane="52_4way_12to4way_11_0" departPos="5.10" departSpeed="0.00" departDelay="0.50" arrival="84.00" arrivalLane="53_4way_11to4way_19_0" arrivalPos="85.60" arrivalSpeed="12.20" duration="20.00" routeLength="175.13" waitingTime="0.00" waitingCount="0" stopTime="0.00" timeLoss="4.64" rerouteNo="0" devices="tripinfo_254" vType="DEFAULT_VEHTYPE" speedFactor="0.90" vaporized=""/>
    <tripinfo id="290" depart="74.00" departLane="16_3way_4to3way_3_0" departPos="5.10" departSpeed="0.00" departDelay="1.50" arrival="84.00" arrivalLane="16_3way_4to3way_3_0" arrivalPos="85.60" arrivalSpeed="15.44" duration="10.00" routeLength="80.50" waitingTime="0.00" waitingCount="0" stopTime="0.00" timeLoss="4.12" rerouteNo="0" devices="tripinfo_290" vType="DEFAULT_VEHTYPE" speedFactor="1.14" vaporized=""/>
    <tripinfo id="29" depart="8.00" departLane="4_3way_15to3way_23_0" departPos="5.10" departSpeed="0.00" departDelay="0.75" arrival="85.00" arrivalLane="18_3way_31to3way_39_0" arrivalPos="85.60" arrivalSpeed="12.27" duration="77.00" routeLength="280.50" waitingTime="47.00" waitingCount="1" stopTime="0.00" timeLoss="55.65" rerouteNo="0" devices="tripinfo_29" vType="DEFAULT_VEHTYPE" speedFactor="0.95" vaporized=""/>
    <tripinfo id="57" depart="15.00" departLane="95_4way_42to4way_43_0" departPos="5.10" departSpeed="0.00" departDelay="0.75" arrival="85.00" arrivalLane="99_4way_44to4way_45_0" arrivalPos="85.60" arrivalSpeed="13.06" duration="70.00" routeLength="280.50" waitingTime="41.00" waitingCount="1" stopTime="0.00" timeLoss="48.81" rerouteNo="0" devices="tripinfo_57" vType="DEFAULT_VEHTYPE" speedFactor="0.97" vaporized=""/>
    <tripinfo id="82" depart="21.00" departLane="7_3way_24to3way_16_0" departPos="5.10" departSpeed="0.00" departDelay="0.50" arrival="85.00" arrivalLane="2_3way_8to3way_1_0" arrivalPos="188.80" arrivalSpeed="13.37" duration="64.00" routeLength="383.70" waitingTime="27.00" waitingCount="1" stopTime="0.00" timeLoss="35.79" rerouteNo="0" devices="tripinfo_82" vType="DEFAULT_VEHTYPE" speedFactor="0.99" vaporized=""/>