<?xml version="1.0" encoding="UTF-8"?>

<!-- generated on 2023-07-27 19:15:42 by Eclipse SUMO sumo Version 1.12.0
<configuration xmlns:xsi="http://www.w3.org/2001/XMLSchema-instance" xsi:noNamespaceSchemaLocation="http://sumo.dlr.de/xsd/sumoConfiguration.xsd">

    <input>
        <net-file value="../../data_generation/sq.net.xml"/>
        <route-files value="../../data_generation/sq.rou.xml"/>
    </input>

    <output>
        <tripinfo-output value="tripinfo.xml"/>
        <statistic-output value="statistic.xml"/>
    </output>

    <time>
        <begin value="0"/>
        <end value="3600"/>
    </time>

    <processing>
        <time-to-teleport value="-1"/>
    </processing>

    <traci_server>
        <remote-port value="52833"/>
    </traci_server>

    <random_number>
        <seed value="1395"/>
    </random_number>

    <gui_only>
        <gui-settings-file value="../../data_generation/view_HY_0402.xml"/>
    </gui_only>

</configuration>
-->

<tripinfos xmlns:xsi="http://www.w3.org/2001/XMLSchema-instance" xsi:noNamespaceSchemaLocation="http://sumo.dlr.de/xsd/tripinfo_file.xsd">
    <tripinfo id="15" depart="5.00" departLane="80_4way_9to4way_8_0" departPos="5.10" departSpeed="0.00" departDelay="0.71" arrival="14.00" arrivalLane="80_4way_9to4way_8_0" arrivalPos="85.60" arrivalSpeed="14.22" duration="9.00" routeLength="80.50" waitingTime="0.00" waitingCount="0" stopTime="0.00" timeLoss="3.21" rerouteNo="0" devices="tripinfo_15" vType="DEFAULT_VEHTYPE" speedFactor="1.05" vaporized=""/>
    <tripinfo id="19" depart="6.00" departLane="21_3way_3to4way_10_0" departPos="5.10" departSpeed="0.00" departDelay="0.57" arrival="25.00" arrivalLane="42_4way_10to4way_17_0" arrivalPos="85.60" arrivalSpeed="11.54" duration="19.00" routeLength="180.50" waitingTime="0.00" waitingCount="0" stopTime="0.00" timeLoss="3.84" rerouteNo="0" devices="tripinfo_19" vType="DEFAULT_VEHTYPE" speedFactor="0.89" vaporized=""/>
    <tripinfo id="24" depart="7.00" departLane="16_3way_27to3way_34_0" departPos="5.10" departSpeed="0.00" departDelay="0.14" arrival="25.00" arrivalLane="22_3way_34to3way_41_0" arrivalPos="85.60" arrivalSpeed="12.82" duration="18.00" routeLength="180.50" waitingTime="0.00" waitingCount="0" stopTime="0.00" timeLoss="4.65" rerouteNo="0" devices="tripinfo_24" vType="DEFAULT_VEHTYPE" speedFactor="0.97" vaporized=""/>
    <tripinfo id="50" depart="17.00" departLane="52_4way_9to4way_16_0" departPos="5.10" departSpeed="0.00" departDelay="2.71" arrival="27.00" arrivalLane="52_4way_9to4way_16_0" arrivalPos="85.60" arrivalSpeed="12.73" duration="10.00" routeLength="80.50" waitingTime="0.00" waitingCount="0" stopTime="0.00" timeLoss="3.51" rerouteNo="0" devices="tripinfo_50" vType="DEFAULT_VEHTYPE" speedFactor="1.01" vaporized=""/>
    <tripinfo id="38" depart="11.00" departLane="42_4way_17to4way_10_0" departPos="5.10" departSpeed="0.00" departDelay="0.14" arrival="28.00" arrivalLane="21_4way_10to3way_3_0" arrivalPos="85.60" arrivalSpeed="12.99" duration="17.00" routeLength="180.50" waitingTime="0.00" waitingCount="0" stopTime="0.00" timeLoss="3.24" rerouteNo="0" devices="tripinfo_38" vType="DEFAULT_VEHTYPE" speedFactor="1.00" vaporized=""/>
    <tripinfo id="64" depart="19.00" departLane="52_4way_16to4way_9_0" departPos="5.10" departSpeed="0.00" departDelay="0.71" arrival="29.00" arrivalLane="52_4way_16to4way_9_0" arrivalPos="85.60" arrivalSpeed="13.02" duration="10.00" routeLength="80.50" waitingTime="0.00" waitingCount="0" stopTime="0.00" timeLoss="3.39" rerouteNo="0" devices="tripinfo_64" vType="DEFAULT_VEHTYPE" speedFactor="0.96" vaporized=""/>
    <tripinfo id="61" depart="21.00" departLane="33_3way_44to4way_37_0" departPos="5.10" departSpeed="0.00" departDelay="3.57" arrival="30.00" arrivalLane="33_3way_44to4way_37_0" arrivalPos="85.60" arrivalSpeed="13.05" duration="9.00" routeLength="80.50" waitingTime="0.00" waitingCount="0" stopTime="0.00" timeLoss="2.99" rerouteNo="0" devices="tripinfo_61" vType="DEFAULT_VEHTYPE" speedFactor="1.01" vaporized=""/>
    <tripinfo id="69" depart="20.00" departLane="53_4way_17to4way_18_0" departPos="5.10" departSpeed="0.00" departDelay="0.29" arrival="30.00" arrivalLane="53_4way_17to4way_18_0" arrivalPos="85.60" arrivalSpeed="10.39" duration="10.00" routeLength="80.50" waitingTime="0.00" waitingCount="0" stopTime="0.00" timeLoss="2.24" rerouteNo="0" devices="tripinfo_69" vType="DEFAULT_VEHTYPE" speedFactor="0.82" vaporized=""/>
    <tripinfo id="18" depart="6.00" departLane="8_3way_7to3way_14_0" departPos="5.10" departSpeed="0.00" departDelay="0.86" arrival="31.00" arrivalLane="14_3way_21to3way_28_0" arrivalPos="85.60" arrivalSpeed="13.12" duration="25.00" routeLength="280.50" waitingTime="0.00" waitingCount="0" stopTime="0.00" timeLoss="3.62" rerouteNo="0" devices="tripinfo_18" vType="DEFAULT_VEHTYPE" speedFactor="0.96" vaporized=""/>
    <tripinfo id="21" depart="6.00" departLane="18_3way_28to3way_35_0" departPos="5.10" departSpeed="0.00" departDelay="0.00" arrival="34.00" arrivalLane="24_3way_35to3way_43_0" arrivalPos="182.40" arrivalSpeed="11.00" duration="28.00" routeLength="277.30" waitingTime="0.00" waitingCount="0" stopTime="0.00" timeLoss="3.76" rerouteNo="0" devices="tripinfo_21" vType="DEFAULT_VEHTYPE" speedFactor="0.82" vaporized=""/>
    <tripinfo id="30" depart="9.00" departLane="26_3way_5to3way_4_0" departPos="5.10" departSpeed="0.00" departDelay="0.43" arrival="35.00" arrivalLane="45_4way_11to4way_18_0" arrivalPos="85.60" arrivalSpeed="13.72" duration="26.00" routeLength="275.13" waitingTime="0.00" waitingCount="0" stopTime="0.00" timeLoss="5.75" rerouteNo="0" devices="tripinfo_30" vType="DEFAULT_VEHTYPE" speedFactor="1.05" vaporized=""/>
    <tripinfo id="8" depart="3.00" departLane="74_4way_39to4way_32_0" departPos="5.10" departSpeed="0.00" departDelay="0.71" arrival="36.00" arrivalLane="45_4way_18to4way_11_0" arrivalPos="85.60" arrivalSpeed="12.36" duration="33.00" routeLength="380.50" waitingTime="0.00" waitingCount="0" stopTime="0.00" timeLoss="4.03" rerouteNo="0" devices="tripinfo_8" vType="DEFAULT_VEHTYPE" speedFactor="0.98" vaporized=""/>
    <tripinfo id="95" depart="28.00" departLane="36_3way_46to3way_47_0" departPos="5.10" departSpeed="0.00" departDelay="0.86" arrival="37.00" arrivalLane="36_3way_46to3way_47_0" arrivalPos="85.60" arrivalSpeed="12.19" duration="9.00" routeLength="80.50" waitingTime="0.00" waitingCount="0" stopTime="0.00" timeLoss="2.37" rerouteNo="0" devices="tripinfo_95" vType="DEFAULT_VEHTYPE" speedFactor="0.88" vaporized=""/>
    <tripinfo id="102" depart="30.00" departLane="29_3way_41to4way_40_0" departPos="5.10" departSpeed="0.00" departDelay="0.86" arrival="39.00" arrivalLane="29_3way_41to4way_40_0" arrivalPos="85.60" arrivalSpeed="13.42" duration="9.00" routeLength="80.50" waitingTime="0.00" waitingCount="0" stopTime="0.00" timeLoss="3.48" rerouteNo="0" devices="tripinfo_102" vType="DEFAULT_VEHTYPE" speedFactor="1.05" vaporized=""/>
    <tripinfo id="45" depart="13.00" departLane="3_3way_1to4way_8_0" departPos="5.10" departSpeed="0.00" departDelay="0.14" arrival="40.00" arrivalLane="47_4way_15to4way_16_0" arrivalPos="85.60" arrivalSpeed="13.82" duration="27.00" routeLength="275.13" waitingTime="0.00" waitingCount="0" stopTime="0.00" timeLoss="5.46" rerouteNo="0" devices="tripinfo_45" vType="DEFAULT_VEHTYPE" speedFactor="1.00" vaporized=""/>
    <tripinfo id="20" depart="6.00" departLane="4_3way_13to3way_20_0" departPos="5.10" departSpeed="0.00" departDelay="0.29" arrival="41.00" arrivalLane="22_3way_34to3way_41_0" arrivalPos="85.60" arrivalSpeed="11.68" duration="35.00" routeLength="380.50" waitingTime="0.00" waitingCount="0" stopTime="0.00" timeLoss="4.03" rerouteNo="0" devices="tripinfo_20" vType="DEFAULT_VEHTYPE" speedFactor="0.89" vaporized=""/>
    <tripinfo id="70" depart="20.00" departLane="46_4way_19to4way_12_0" departPos="5.10" departSpeed="0.00" departDelay="0.00" arrival="41.00" arrivalLane="39_4way_12to3way_5_0" arrivalPos="85.60" arrivalSpeed="10.04" duration="21.00" routeLength="180.50" waitingTime="0.00" waitingCount="0" stopTime="0.00" timeLoss="3.20" rerouteNo="0" devices="tripinfo_70" vType="DEFAULT_VEHTYPE" speedFactor="0.75" vaporized=""/>
    <tripinfo id="78" depart="23.00" departLane="65_4way_32to4way_25_0" departPos="5.10" departSpeed="0.00" departDelay="0.71" arrival="41.00" arrivalLane="62_4way_25to4way_24_0" arrivalPos="85.60" arrivalSpeed="13.81" duration="18.00" routeLength="175.13" waitingTime="0.00" waitingCount="0" stopTime="0.00" timeLoss="5.10" rerouteNo="0" devices="tripinfo_78" vType="DEFAULT_VEHTYPE" speedFactor="1.03" vaporized=""/>
    <tripinfo id="31" depart="12.00" departLane="26_3way_5to3way_4_0" departPos="5.10" departSpeed="0.00" departDelay="3.14" arrival="44.00" arrivalLane="56_4way_18to4way_25_0" arrivalPos="85.60" arrivalSpeed="15.28" duration="32.00" routeLength="375.13" waitingTime="0.00" waitingCount="0" stopTime="0.00" timeLoss="6.77" rerouteNo="0" devices="tripinfo_31" vType="DEFAULT_VEHTYPE" speedFactor="1.11" vaporized=""/>
    <tripinfo id="93" depart="27.00" departLane="66_4way_26to4way_33_0" departPos="5.10" departSpeed="0.00" departDelay="0.43" arrival="46.00" arrivalLane="23_4way_33to3way_34_0" arrivalPos="85.60" arrivalSpeed="13.06" duration="19.00" routeLength="175.13" waitingTime="0.00" waitingCount="0" stopTime="0.00" timeLoss="5.40" rerouteNo="0" devices="tripinfo_93" vType="DEFAULT_VEHTYPE" speedFactor="1.00" vaporized=""/>
    <tripinfo id="123" depart="36.00" departLane="72_4way_31to4way_38_0" departPos="5.10" departSpeed="0.00" departDelay="0.86" arrival="46.00" arrivalLane="72_4way_31to4way_38_0" arrivalPos="85.60" arrivalSpeed="13.61" duration="10.00" routeLength="80.50" waitingTime="0.00" waitingCount="0" stopTime="0.00" timeLoss="4.26" rerouteNo="0" devices="tripinfo_123" vType="DEFAULT_VEHTYPE" speedFactor="1.06" vaporized=""/>
    <tripinfo id="51" depart="15.00" departLane="66_4way_26to4way_33_0" departPos="5.10" departSpeed="0.00" departDelay="0.43" arrival="47.00" arrivalLane="38_4way_40to3way_47_0" arrivalPos="85.60" arrivalSpeed="9.13" duration="32.00" routeLength="280.50" waitingTime="0.00" waitingCount="0" stopTime="0.00" timeLoss="3.99" rerouteNo="0" devices="tripinfo_51" vType="DEFAULT_VEHTYPE" speedFactor="0.74" vaporized=""/>
    <tripinfo id="99" depart="29.00" departLane="20_3way_4to3way_3_0" departPos="5.10" departSpeed="0.00" departDelay="0.72" arrival="47.00" arrivalLane="10_3way_3to3way_2_0" arrivalPos="85.60" arrivalSpeed="13.50" duration="18.00" routeLength="180.50" waitingTime="0.00" waitingCount="0" stopTime="0.00" timeLoss="3.74" rerouteNo="0" devices="tripinfo_99" vType="DEFAULT_VEHTYPE" speedFactor="0.97" vaporized=""/>
    <tripinfo id="37" depart="11.00" departLane="7_3way_14to3way_21_0" departPos="5.10" departSpeed="0.00" departDelay="0.43" arrival="50.00" arrivalLane="24_3way_35to3way_43_0" arrivalPos="182.40" arrivalSpeed="12.68" duration="39.00" routeLength="477.30" waitingTime="0.00" waitingCount="0" stopTime="0.00" timeLoss="4.25" rerouteNo="0" devices="tripinfo_37" vType="DEFAULT_VEHTYPE" speedFactor="0.99" vaporized=""/>
    <tripinfo id="53" depart="16.00" departLane="32_3way_44to3way_45_0" departPos="5.10" departSpeed="0.00" departDelay="0.86" arrival="51.00" arrivalLane="54_4way_24to4way_17_0" arrivalPos="85.60" arrivalSpeed="15.66" duration="35.00" routeLength="475.13" waitingTime="0.00" waitingCount="0" stopTime="0.00" timeLoss="7.29" rerouteNo="0" devices="tripinfo_53" vType="DEFAULT_VEHTYPE" speedFactor="1.27" vaporized=""/>
    <tripinfo id="56" depart="16.00" departLane="54_4way_17to4way_24_0" departPos="5.10" departSpeed="0.00" departDelay="0.00" arrival="51.00" arrivalLane="78_4way_38to4way_39_0" arrivalPos="85.60" arrivalSpeed="13.56" duration="35.00" routeLength="375.13" waitingTime="0.00" waitingCount="0" stopTime="0.00" timeLoss="6.56" rerouteNo="0" devices="tripinfo_56" vType="DEFAULT_VEHTYPE" speedFactor="1.02" vaporized=""/>
    <tripinfo id="23" depart="7.00" departLane="39_3way_5to4way_12_0" departPos="5.10" departSpeed="0.00" departDelay="0.43" arrival="52.00" arrivalLane="75_4way_33to4way_40_0" arrivalPos="85.60" arrivalSpeed="12.05" duration="45.00" routeLength="480.50" waitingTime="0.00" waitingCount="0" stopTime="0.00" timeLoss="4.82" rerouteNo="0" devices="tripinfo_23" vType="DEFAULT_VEHTYPE" speedFactor="0.87" vaporized=""/>
    <tripinfo id="124" depart="36.00" departLane="27_3way_4to4way_11_0" departPos="5.10" departSpeed="0.00" departDelay="0.57" arrival="54.00" arrivalLane="44_4way_11to4way_12_0" arrivalPos="85.60" arrivalSpeed="15.05" duration="18.00" routeLength="175.13" waitingTime="0.00" waitingCount="0" stopTime="0.00" timeLoss="5.60" rerouteNo="0" devices="tripinfo_124" vType="DEFAULT_VEHTYPE" speedFactor="1.11" vaporized=""/>
    <tripinfo id="152" depart="44.00" departLane="26_3way_5to3way_4_0" departPos="5.10" departSpeed="0.00" departDelay="0.57" arrival="54.00" arrivalLane="26_3way_5to3way_4_0" arrivalPos="85.60" arrivalSpeed="12.16" duration="10.00" routeLength="80.50" waitingTime="0.00" waitingCount="0" stopTime="0.00" timeLoss="2.96" rerouteNo="0" devices="tripinfo_152" vType="DEFAULT_VEHTYPE" speedFactor="0.89" vaporized=""/>
    <tripinfo id="159" depart="46.00" departLane="42_4way_17to4way_10_0" departPos="5.10" departSpeed="0.00" departDelay="0.57" arrival="55.00" arrivalLane="42_4way_17to4way_10_0" arrivalPos="85.60" arrivalSpeed="12.62" duration="9.00" routeLength="80.50" waitingTime="0.00" waitingCount="0" stopTime="0.00" timeLoss="2.76" rerouteNo="0" devices="tripinfo_159" vType="DEFAULT_VEHTYPE" speedFactor="0.99" vaporized=""/>
    <tripinfo id="109" depart="37.00" departLane="66_4way_26to4way_33_0" departPos="5.10" departSpeed="0.00" departDelay="5.86" arrival="56.00" arrivalLane="23_4way_33to3way_34_0" arrivalPos="85.60" arrivalSpeed="13.30" duration="19.00" routeLength="175.13" waitingTime="0.00" waitingCount="0" stopTime="0.00" timeLoss="5.46" rerouteNo="0" devices="tripinfo_109" vType="DEFAULT_VEHTYPE" speedFactor="1.04" vaporized=""/>
    <tripinfo id="168" depart="48.00" departLane="27_3way_4to4way_11_0" departPos="5.10" departSpeed="0.00" departDelay="0.00" arrival="57.00" arrivalLane="27_3way_4to4way_11_0" arrivalPos="85.60" arrivalSpeed="14.87" duration="9.00" routeLength="80.50" waitingTime="0.00" waitingCount="0" stopTime="0.00" timeLoss="3.07" rerouteNo="0" devices="tripinfo_168" vType="DEFAULT_VEHTYPE" speedFactor="1.10" vaporized=""/>
    <tripinfo id="47" depart="14.00" departLane="35_3way_45to4way_38_0" departPos="5.10" departSpeed="0.00" departDelay="0.57" arrival="58.00" arrivalLane="42_4way_17to4way_10_0" arrivalPos="85.60" arrivalSpeed="11.23" duration="44.00" routeLength="480.50" waitingTime="0.00" waitingCount="0" stopTime="0.00" timeLoss="4.52" rerouteNo="0" devices="tripinfo_47" vType="DEFAULT_VEHTYPE" speedFactor="0.90" vaporized=""/>
    <tripinfo id="112" depart="32.00" departLane="28_3way_41to3way_47_0" departPos="5.10" departSpeed="0.00" departDelay="0.00" arrival="58.00" arrivalLane="36_3way_47to3way_46_0" arrivalPos="85.60" arrivalSpeed="13.15" duration="26.00" routeLength="283.70" waitingTime="0.00" waitingCount="0" stopTime="0.00" timeLoss="3.66" rerouteNo="0" devices="tripinfo_112" vType="DEFAULT_VEHTYPE" speedFactor="0.95" vaporized=""/>
    <tripinfo id="96" depart="28.00" departLane="2_3way_7to3way_1_0" departPos="5.10" departSpeed="0.00" departDelay="0.57" arrival="62.00" arrivalLane="10_3way_2to3way_3_0" arrivalPos="85.60" arrivalSpeed="12.52" duration="34.00" routeLength="383.70" waitingTime="0.00" waitingCount="0" stopTime="0.00" timeLoss="4.13" rerouteNo="0" devices="tripinfo_96" vType="DEFAULT_VEHTYPE" speedFactor="0.95" vaporized=""/>
    <tripinfo id="105" depart="30.00" departLane="14_3way_21to3way_28_0" departPos="5.10" departSpeed="0.00" departDelay="0.00" arrival="64.00" arrivalLane="24_3way_35to3way_43_0" arrivalPos="182.40" arrivalSpeed="12.94" duration="34.00" routeLength="377.30" waitingTime="0.00" waitingCount="0" stopTime="0.00" timeLoss="5.04" rerouteNo="0" devices="tripinfo_105" vType="DEFAULT_VEHTYPE" speedFactor="0.95" vaporized=""/>
    <tripinfo id="135" depart="39.00" departLane="45_4way_11to4way_18_0" departPos="5.10" departSpeed="0.00" departDelay="0.43" arrival="64.00" arrivalLane="64_4way_25to4way_26_0" arrivalPos="85.60" arrivalSpeed="14.40" duration="25.00" routeLength="275.13" waitingTime="0.00" waitingCount="0" stopTime="0.00" timeLoss="5.80" rerouteNo="0" devices="tripinfo_135" vType="DEFAULT_VEHTYPE" speedFactor="1.09" vaporized=""/>
    <tripinfo id="155" depart="45.00" departLane="63_4way_24to4way_31_0" departPos="5.10" departSpeed="0.00" departDelay="0.72" arrival="64.00" arrivalLane="71_4way_31to4way_32_0" arrivalPos="85.60" arrivalSpeed="12.92" duration="19.00" routeLength="175.13" waitingTime="0.00" waitingCount="0" stopTime="0.00" timeLoss="4.56" rerouteNo="0" devices="tripinfo_155" vType="DEFAULT_VEHTYPE" speedFactor="0.94" vaporized=""/>
    <tripinfo id="91" depart="26.00" departLane="30_3way_43to3way_44_0" departPos="5.10" departSpeed="0.00" departDelay="0.00" arrival="67.00" arrivalLane="63_4way_31to4way_24_0" arrivalPos="85.60" arrivalSpeed="13.32" duration="41.00" routeLength="475.13" waitingTime="0.00" waitingCount="0" stopTime="0.00" timeLoss="7.08" rerouteNo="0" devices="tripinfo_91" vType="DEFAULT_VEHTYPE" speedFactor="1.04" vaporized=""/>
    <tripinfo id="134" depart="43.00" departLane="66_4way_26to4way_33_0" departPos="5.10" departSpeed="0.00" departDelay="4.72" arrival="68.00" arrivalLane="38_4way_40to3way_47_0" arrivalPos="85.60" arrivalSpeed="13.57" duration="25.00" routeLength="280.50" waitingTime="0.00" waitingCount="0" stopTime="0.00" timeLoss="4.70" rerouteNo="0" devices="tripinfo_134" vType="DEFAULT_VEHTYPE" speedFactor="1.00" vaporized=""/>
    <tripinfo id="162" depart="51.00" departLane="42_4way_17to4way_10_0" departPos="5.10" departSpeed="0.00" departDelay="4.72" arrival="68.00" arrivalLane="21_4way_10to3way_3_0" arrivalPos="85.60" arrivalSpeed="13.13" duration="17.00" routeLength="180.50" waitingTime="0.00" waitingCount="0" stopTime="0.00" timeLoss="3.03" rerouteNo="0" devices="tripinfo_162" vType="DEFAULT_VEHTYPE" speedFactor="0.96" vaporized=""/>
    <tripinfo id="194" depart="60.00" departLane="18_3way_28to3way_35_0" departPos="5.10" departSpeed="0.00" departDelay="4.57" arrival="69.00" arrivalLane="18_3way_28to3way_35_0" arrivalPos="85.60" arrivalSpeed="14.39" duration="9.00" routeLength="80.50" waitingTime="0.00" waitingCount="0" stopTime="0.00" timeLoss="3.48" rerouteNo="0" devices="tripinfo_194" vType="DEFAULT_VEHTYPE" speedFactor="1.10" vaporized=""/>
    <tripinfo id="9" depart="3.00" departLane="45_4way_11to4way_18_0" departPos="5.10" departSpeed="0.00" departDelay="0.43" arrival="70.00" arrivalLane="79_4way_39to4way_40_0" arrivalPos="85.60" arrivalSpeed="4.81" duration="67.00" routeLength="475.13" waitingTime="18.00" waitingCount="1" stopTime="0.00" timeLoss="28.37" rerouteNo="0" devices="tripinfo_9" vType="DEFAULT_VEHTYPE" speedFactor="0.91" vaporized=""/>
    <tripinfo id="27" depart="10.00" departLane="39_3way_5to4way_12_0" departPos="5.10" departSpeed="0.00" departDelay="2.29" arrival="70.00" arrivalLane="17_4way_26to3way_27_0" arrivalPos="85.60" arrivalSpeed="4.52" duration="60.00" routeLength="375.13" waitingTime="21.00" waitingCount="1" stopTime="0.00" timeLoss="33.26" rerouteNo="0" devices="tripinfo_27" vType="DEFAULT_VEHTYPE" speedFactor="1.03" vaporized=""/>
    <tripinfo id="57" depart="17.00" departLane="58_4way_22to4way_23_0" departPos="5.10" departSpeed="0.00" departDelay="0.71" arrival="70.00" arrivalLane="60_4way_23to4way_24_0" arrivalPos="85.60" arrivalSpeed="5.41" duration="53.00" routeLength="180.50" waitingTime="31.00" waitingCount="1" stopTime="0.00" timeLoss="39.52" rerouteNo="0" devices="tripinfo_57" vType="DEFAULT_VEHTYPE" speedFactor="0.97" vaporized=""/>
    <tripinfo id="86" depart="25.00" departLane="11_3way_2to4way_9_0" departPos="5.10" departSpeed="0.00" departDelay="0.43" arrival="70.00" arrivalLane="50_4way_16to4way_17_0" arrivalPos="85.60" arrivalSpeed="4.98" duration="45.00" routeLength="275.13" waitingTime="13.00" waitingCount="1" stopTime="0.00" timeLoss="25.84" rerouteNo="0" devices="tripinfo_86" vType="DEFAULT_VEHTYPE" speedFactor="1.06" vaporized=""/>
    <tripinfo id="185" depart="53.00" departLane="52_4way_16to4way_9_0" departPos="5.10" departSpeed="0.00" departDelay="0.14" arrival="70.00" arrivalLane="80_4way_9to4way_8_0" arrivalPos="85.60" arrivalSpeed="16.04" duration="17.00" routeLength="175.13" waitingTime="0.00" waitingCount="0" stopTime="0.00" timeLoss="5.19" rerouteNo="0" devices="tripinfo_185" vType="DEFAULT_VEHTYPE" speedFactor="1.18" vaporized=""/>
    <tripinfo id="13" depart="4.00" departLane="7_3way_14to3way_21_0" departPos="5.10" departSpeed="0.00" departDelay="0.29" arrival="71.00" arrivalLane="19_3way_28to4way_29_0" arrivalPos="85.60" arrivalSpeed="7.14" duration="67.00" routeLength="275.13" waitingTime="35.00" waitingCount="1" stopTime="0.00" timeLoss="45.74" rerouteNo="0" devices="tripinfo_13" vType="DEFAULT_VEHTYPE" speedFactor="0.98" vaporized=""/>
    <tripinfo id="79" depart="25.00" departLane="73_4way_32to4way_33_0" departPos="5.10" departSpeed="0.00" departDelay="2.43" arrival="71.00" arrivalLane="73_4way_32to4way_33_0" arrivalPos="85.60" arrivalSpeed="6.09" duration="46.00" routeLength="80.50" waitingTime="29.00" waitingCount="1" stopTime="0.00" timeLoss="39.12" rerouteNo="0" devices="tripinfo_79" vType="DEFAULT_VEHTYPE" speedFactor="0.90" vaporized=""/>
    <tripinfo id="80" depart="23.00" departLane="14_3way_28to3way_21_0" departPos="5.10" departSpeed="0.00" departDelay="0.14" arrival="73.00" arrivalLane="2_3way_7to3way_1_0" arrivalPos="188.80" arrivalSpeed="9.94" duration="50.00" routeLength="483.70" waitingTime="0.00" waitingCount="0" stopTime="0.00" timeLoss="4.79" rerouteNo="0" devices="tripinfo_80" vType="DEFAULT_VEHTYPE" speedFactor="0.78" vaporized=""/>
    <tripinfo id="129" depart="37.00" departLane="41_4way_11to4way_10_0" departPos="5.10" departSpeed="0.00" departDelay="0.14" arrival="73.00" arrivalLane="41_4way_11to4way_10_0" arrivalPos="85.60" arrivalSpeed="7.01" duration="36.00" routeLength="80.50" waitingTime="20.00" waitingCount="1" stopTime="0.00" timeLoss="30.56" rerouteNo="0" devices="tripinfo_129" vType="DEFAULT_VEHTYPE" speedFactor="1.14" vaporized=""/>
    <tripinfo id="12" depart="4.00" departLane="17_4way_26to3way_27_0" departPos="5.10" departSpeed="0.00" departDelay="0.57" arrival="76.00" arrivalLane="12_3way_27to3way_20_0" arrivalPos="85.60" arrivalSpeed="15.62" duration="72.00" routeLength="175.13" waitingTime="50.00" waitingCount="1" stopTime="0.00" timeLoss="60.34" rerouteNo="0" devices="tripinfo_12" vType="DEFAULT_VEHTYPE" speedFactor="1.16" vaporized=""/>
    <tripinfo id="100" depart="29.00" departLane="80_4way_8to4way_9_0" departPos="5.10" departSpeed="0.00" departDelay="0.43" arrival="76.00" arrivalLane="43_4way_9to4way_10_0" arrivalPos="85.60" arrivalSpeed="16.40" duration="47.00" routeLength="180.50" waitingTime="25.00" waitingCount="1" stopTime="0.00" timeLoss="36.06" rerouteNo="0" devices="tripinfo_100" vType="DEFAULT_VEHTYPE" speedFactor="1.20" vaporized=""/>
    <tripinfo id="106" depart="33.00" departLane="56_4way_25to4way_18_0" departPos="5.10" departSpeed="0.00" departDelay="2.72" arrival="76.00" arrivalLane="50_4way_17to4way_16_0" arrivalPos="85.60" arrivalSpeed="14.98" duration="43.00" routeLength="275.13" waitingTime="12.00" waitingCount="1" stopTime="0.00" timeLoss="25.24" rerouteNo="0" devices="tripinfo_106" vType="DEFAULT_VEHTYPE" speedFactor="1.16" vaporized=""/>
    <tripinfo id="14" depart="4.00" departLane="35_4way_38to3way_45_0" departPos="5.10" departSpeed="0.00" departDelay="0.00" arrival="77.00" arrivalLane="34_3way_45to3way_46_0" arrivalPos="85.60" arrivalSpeed="12.50" duration="73.00" routeLength="175.13" waitingTime="51.00" waitingCount="1" stopTime="0.00" timeLoss="58.93" rerouteNo="0" devices="tripinfo_14" vType="DEFAULT_VEHTYPE" speedFactor="0.95" vaporized=""/>
    <tripinfo id="22" depart="7.00" departLane="40_3way_7to4way_8_0" departPos="5.10" departSpeed="0.00" departDelay="0.71" arrival="77.00" arrivalLane="80_4way_8to4way_9_0" arrivalPos="85.60" arrivalSpeed="12.99" duration="70.00" routeLength="180.50" waitingTime="47.00" waitingCount="1" stopTime="0.00" timeLoss="56.90" rerouteNo="0" devices="tripinfo_22" vType="DEFAULT_VEHTYPE" speedFactor="1.00" vaporized=""/>
    <tripinfo id="25" depart="8.00" departLane="37_3way_46to4way_39_0" departPos="5.10" departSpeed="0.00" departDelay="0.86" arrival="77.00" arrivalLane="77_4way_38to4way_37_0" arrivalPos="85.60" arrivalSpeed="12.48" duration="69.00" routeLength="275.13" waitingTime="37.00" waitingCount="1" stopTime="0.00" timeLoss="47.19" rerouteNo="0" devices="tripinfo_25" vType="DEFAULT_VEHTYPE" speedFactor="0.95" vaporized=""/>
    <tripinfo id="71" depart="21.00" departLane="75_4way_40to4way_33_0" departPos="5.10" departSpeed="0.00" departDelay="0.71" arrival="77.00" arrivalLane="62_4way_25to4way_24_0" arrivalPos="85.60" arrivalSpeed="14.37" duration="56.00" routeLength="375.13" waitingTime="18.00" waitingCount="1" stopTime="0.00" timeLoss="30.89" rerouteNo="0" devices="tripinfo_71" vType="DEFAULT_VEHTYPE" speedFactor="1.13" vaporized=""/>
    <tripinfo id="75" depart="22.00" departLane="52_4way_9to4way_16_0" departPos="5.10" departSpeed="0.00" departDelay="0.57" arrival="77.00" arrivalLane="53_4way_17to4way_18_0" arrivalPos="85.60" arrivalSpeed="14.21" duration="55.00" routeLength="275.13" waitingTime="23.00" waitingCount="1" stopTime="0.00" timeLoss="35.47" rerouteNo="0" devices="tripinfo_75" vType="DEFAULT_VEHTYPE" speedFactor="1.09" vaporized=""/>
    <tripinfo id="107" depart="31.00" departLane="74_4way_39to4way_32_0" departPos="5.10" departSpeed="0.00" departDelay="0.43" arrival="77.00" arrivalLane="69_4way_31to4way_30_0" arrivalPos="85.60" arrivalSpeed="14.79" duration="46.00" routeLength="275.13" waitingTime="13.00" waitingCount="1" stopTime="0.00" timeLoss="27.19" rerouteNo="0" devices="tripinfo_107" vType="DEFAULT_VEHTYPE" speedFactor="1.10" vaporized=""/>
    <tripinfo id="48" depart="14.00" departLane="73_4way_33to4way_32_0" departPos="5.10" departSpeed="0.00" departDelay="0.29" arrival="78.00" arrivalLane="71_4way_32to4way_31_0" arrivalPos="85.60" arrivalSpeed="11.31" duration="64.00" routeLength="180.50" waitingTime="41.00" waitingCount="1" stopTime="0.00" timeLoss="48.37" rerouteNo="0" devices="tripinfo_48" vType="DEFAULT_VEHTYPE" speedFactor="0.83" vaporized=""/>
    <tripinfo id="103" depart="30.00" departLane="37_3way_46to4way_39_0" departPos="5.10" departSpeed="0.00" departDelay="0.57" arrival="79.00" arrivalLane="77_4way_38to4way_37_0" arrivalPos="85.60" arrivalSpeed="15.78" duration="49.00" routeLength="275.13" waitingTime="19.00" waitingCount="1" stopTime="0.00" timeLoss="30.48" rerouteNo="0" devices="tripinfo_103" vType="DEFAULT_VEHTYPE" speedFactor="1.15" vaporized=""/>
    <tripinfo id="136" depart="40.00" departLane="74_4way_39to4way_32_0" departPos="5.10" departSpeed="0.00" departDelay="1.14" arrival="79.00" arrivalLane="69_4way_31to4way_30_0" arrivalPos="85.60" arrivalSpeed="12.79" duration="39.00" routeLength="275.13" waitingTime="5.00" waitingCount="1" stopTime="0.00" timeLoss="18.20" rerouteNo="0" devices="tripinfo_136" vType="DEFAULT_VEHTYPE" speedFactor="1.01" vaporized=""/>
    <tripinfo id="201" depart="58.00" departLane="40_3way_7to4way_8_0" departPos="5.10" departSpeed="0.00" departDelay="0.57" arrival="80.00" arrivalLane="3_4way_8to3way_1_0" arrivalPos="85.60" arrivalSpeed="12.40" duration="22.00" routeLength="175.13" waitingTime="0.00" waitingCount="0" stopTime="0.00" timeLoss="6.97" rerouteNo="0" devices="tripinfo_201" vType="DEFAULT_VEHTYPE" speedFactor="0.93" vaporized=""/>
    <tripinfo id="94" depart="27.00" departLane="59_4way_22to4way_29_0" departPos="5.10" departSpeed="0.00" departDelay="0.14" arrival="81.00" arrivalLane="69_4way_30to4way_31_0" arrivalPos="85.60" arrivalSpeed="14.27" duration="54.00" routeLength="275.13" waitingTime="21.00" waitingCount="1" stopTime="0.00" timeLoss="34.76" rerouteNo="0" devices="tripinfo_94" vType="DEFAULT_VEHTYPE" speedFactor="1.08" vaporized=""/>
    <tripinfo id="77" depart="28.00" departLane="49_4way_8to4way_15_0" departPos="5.10" departSpeed="0.00" departDelay="6.00" arrival="82.00" arrivalLane="50_4way_16to4way_17_0" arrivalPos="85.60" arrivalSpeed="10.08" duration="54.00" routeLength="275.13" waitingTime="17.00" waitingCount="1" stopTime="0.00" timeLoss="33.11" rerouteNo="0" devices="tripinfo_77" vType="DEFAULT_VEHTYPE" speedFactor="0.99" vaporized=""/>
    <tripinfo id="10" depart="3.00" departLane="41_4way_11to4way_10_0" departPos="5.10" departSpeed="0.00" departDelay="0.14" arrival="84.00" arrivalLane="80_4way_9to4way_8_0" arrivalPos="85.60" arrivalSpeed="13.81" duration="81.00" routeLength="280.50" waitingTime="52.00" waitingCount="1" stopTime="0.00" timeLoss="61.18" rerouteNo="0" devices="tripinfo_10" vType="DEFAULT_VEHTYPE" speedFactor="1.04" vaporized=""/>
    <tripinfo id="39" depart="12.00" departLane="37_3way_46to4way_39_0" departPos="5.10" departSpeed="0.00" departDelay="0.86" arrival="84.00" arrivalLane="43_4way_10to4way_9_0" arrivalPos="85.60" arrivalSpeed="14.22" duration="72.00" routeLength="675.13" waitingTime="9.00" waitingCount="1" stopTime="0.00" timeLoss="25.00" rerouteNo="0" devices="tripinfo_39" vType="DEFAULT_VEHTYPE" speedFactor="1.05" vaporized=""/>
    <tripinfo id="190" depart="55.00" departLane="14_3way_21to3way_28_0" departPos="5.10" departSpeed="0.00" departDelay="0.72" arrival="84.00" arrivalLane="67_4way_29to4way_30_0" arrivalPos="85.60" arrivalSpeed="14.31" duration="29.00" routeLength="275.13" waitingTime="0.00" waitingCount="0" stopTime="0.00" timeLoss="9.20" rerouteNo="0" devices="tripinfo_190" vType="DEFAULT_VEHTYPE" speedFactor="1.08" vaporized=""/>