<?xml version="1.0" encoding="UTF-8"?>

<!-- generated on 2023-01-06 00:39:19 by Eclipse SUMO sumo Version 1.12.0
<configuration xmlns:xsi="http://www.w3.org/2001/XMLSchema-instance" xsi:noNamespaceSchemaLocation="http://sumo.dlr.de/xsd/sumoConfiguration.xsd">

    <input>
        <net-file value="../../data_generation/sq.net.xml"/>
        <route-files value="../../data_generation/sq.rou.xml"/>
    </input>

    <output>
        <tripinfo-output value="tripinfo.xml"/>
        <statistic-output value="statistic.xml"/>
    </output>

    <time>
        <begin value="0"/>
        <end value="3600"/>
    </time>

    <processing>
        <time-to-teleport value="-1"/>
    </processing>

    <traci_server>
        <remote-port value="58749"/>
    </traci_server>

    <random_number>
        <seed value="1395"/>
    </random_number>

    <gui_only>
        <gui-settings-file value="../../data_generation/view_HY_0402.xml"/>
    </gui_only>

</configuration>
-->

<tripinfos xmlns:xsi="http://www.w3.org/2001/XMLSchema-instance" xsi:noNamespaceSchemaLocation="http://sumo.dlr.de/xsd/tripinfo_file.xsd">
    <tripinfo id="22" depart="18.00" departLane="478_4way_291to4way_271_0" departPos="5.10" departSpeed="0.00" departDelay="0.84" arrival="35.00" arrivalLane="478_4way_291to4way_271_0" arrivalPos="185.60" arrivalSpeed="13.70" duration="17.00" routeLength="180.50" waitingTime="0.00" waitingCount="0" stopTime="0.00" timeLoss="3.64" rerouteNo="0" devices="tripinfo_22" vType="DEFAULT_VEHTYPE" speedFactor="1.00" vaporized=""/>
    <tripinfo id="18" depart="17.00" departLane="359_4way_230to4way_210_0" departPos="5.10" departSpeed="0.00" departDelay="2.96" arrival="51.00" arrivalLane="322_4way_210to4way_190_0" arrivalPos="185.60" arrivalSpeed="12.88" duration="34.00" routeLength="380.50" waitingTime="0.00" waitingCount="0" stopTime="0.00" timeLoss="5.25" rerouteNo="0" devices="tripinfo_18" vType="DEFAULT_VEHTYPE" speedFactor="0.96" vaporized=""/>
    <tripinfo id="27" depart="22.00" departLane="41_3way_180to3way_200_0" departPos="5.10" departSpeed="0.00" departDelay="0.94" arrival="70.00" arrivalLane="54_3way_220to4way_221_0" arrivalPos="185.60" arrivalSpeed="14.19" duration="48.00" routeLength="575.13" waitingTime="0.00" waitingCount="0" stopTime="0.00" timeLoss="6.41" rerouteNo="0" devices="tripinfo_27" vType="DEFAULT_VEHTYPE" speedFactor="1.03" vaporized=""/>
    <tripinfo id="9" depart="8.00" departLane="733_4way_76to4way_75_0" departPos="5.10" departSpeed="0.00" departDelay="0.98" arrival="85.00" arrivalLane="731_4way_75to4way_74_0" arrivalPos="185.60" arrivalSpeed="12.51" duration="77.00" routeLength="380.50" waitingTime="38.00" waitingCount="1" stopTime="0.00" timeLoss="46.84" rerouteNo="0" devices="tripinfo_9" vType="DEFAULT_VEHTYPE" speedFactor="0.91" vaporized=""/>
    <tripinfo id="7" depart="6.00" departLane="77_3way_359to3way_339_0" departPos="5.10" departSpeed="0.00" departDelay="0.54" arrival="103.00" arrivalLane="55_3way_259to3way_239_0" arrivalPos="185.60" arrivalSpeed="12.71" duration="97.00" routeLength="1180.50" waitingTime="0.00" waitingCount="0" stopTime="0.00" timeLoss="7.14" rerouteNo="0" devices="tripinfo_7" vType="DEFAULT_VEHTYPE" speedFactor="0.95" vaporized=""/>
    <tripinfo id="93" depart="73.00" departLane="628_4way_369to4way_349_0" departPos="5.10" departSpeed="0.00" departDelay="0.46" arrival="138.00" arrivalLane="547_4way_309to4way_308_0" arrivalPos="185.60" arrivalSpeed="13.27" duration="65.00" routeLength="775.13" waitingTime="0.00" waitingCount="0" stopTime="0.00" timeLoss="8.73" rerouteNo="0" devices="tripinfo_93" vType="DEFAULT_VEHTYPE" speedFactor="1.00" vaporized=""/>
    <tripinfo id="118" depart="93.00" departLane="165_4way_87to4way_107_0" departPos="5.10" departSpeed="0.00" departDelay="0.96" arrival="142.00" arrivalLane="157_4way_106to4way_105_0" arrivalPos="185.60" arrivalSpeed="13.37" duration="49.00" routeLength="580.30" waitingTime="0.00" waitingCount="0" stopTime="0.00" timeLoss="7.80" rerouteNo="0" devices="tripinfo_118" vType="DEFAULT_VEHTYPE" speedFactor="1.05" vaporized=""/>
    <tripinfo id="14" depart="11.00" departLane="716_4way_66to4way_86_0" departPos="5.10" departSpeed="0.00" departDelay="0.08" arrival="144.00" arrivalLane="315_4way_187to4way_188_0" arrivalPos="185.60" arrivalSpeed="12.85" duration="133.00" routeLength="1575.13" waitingTime="0.00" waitingCount="0" stopTime="0.00" timeLoss="12.25" rerouteNo="0" devices="tripinfo_14" vType="DEFAULT_VEHTYPE" speedFactor="0.95" vaporized=""/>
    <tripinfo id="160" depart="125.00" departLane="90_3way_382to4way_362_0" departPos="5.10" departSpeed="0.00" departDelay="0.20" arrival="144.00" arrivalLane="90_3way_382to4way_362_0" arrivalPos="185.60" arrivalSpeed="11.00" duration="19.00" routeLength="180.50" waitingTime="0.00" waitingCount="0" stopTime="0.00" timeLoss="3.57" rerouteNo="0" devices="tripinfo_160" vType="DEFAULT_VEHTYPE" speedFactor="0.88" vaporized=""/>
    <tripinfo id="148" depart="116.00" departLane="666_4way_375to4way_376_0" departPos="5.10" departSpeed="0.00" departDelay="0.56" arrival="149.00" arrivalLane="120_4way_376to3way_396_0" arrivalPos="185.60" arrivalSpeed="14.28" duration="33.00" routeLength="380.30" waitingTime="0.00" waitingCount="0" stopTime="0.00" timeLoss="6.12" rerouteNo="0" devices="tripinfo_148" vType="DEFAULT_VEHTYPE" speedFactor="1.07" vaporized=""/>
    <tripinfo id="167" depart="131.00" departLane="697_4way_54to4way_74_0" departPos="5.10" departSpeed="0.00" departDelay="0.74" arrival="150.00" arrivalLane="697_4way_54to4way_74_0" arrivalPos="185.60" arrivalSpeed="10.53" duration="19.00" routeLength="180.50" waitingTime="0.00" waitingCount="0" stopTime="0.00" timeLoss="3.44" rerouteNo="0" devices="tripinfo_167" vType="DEFAULT_VEHTYPE" speedFactor="0.85" vaporized=""/>
    <tripinfo id="68" depart="54.00" departLane="254_4way_151to4way_171_0" departPos="5.10" departSpeed="0.00" departDelay="0.96" arrival="157.00" arrivalLane="432_4way_250to4way_249_0" arrivalPos="185.60" arrivalSpeed="14.63" duration="103.00" routeLength="1380.30" waitingTime="0.00" waitingCount="0" stopTime="0.00" timeLoss="10.62" rerouteNo="0" devices="tripinfo_68" vType="DEFAULT_VEHTYPE" speedFactor="1.09" vaporized=""/>
    <tripinfo id="72" depart="57.00" departLane="325_4way_192to4way_193_0" departPos="5.10" departSpeed="0.00" departDelay="0.84" arrival="157.00" arrivalLane="520_4way_293to4way_294_0" arrivalPos="185.60" arrivalSpeed="15.95" duration="100.00" routeLength="1374.93" waitingTime="0.00" waitingCount="0" stopTime="0.00" timeLoss="12.03" rerouteNo="0" devices="tripinfo_72" vType="DEFAULT_VEHTYPE" speedFactor="1.15" vaporized=""/>
    <tripinfo id="115" depart="90.00" departLane="455_4way_261to4way_262_0" departPos="5.10" departSpeed="0.00" departDelay="0.30" arrival="162.00" arrivalLane="380_4way_242to4way_222_0" arrivalPos="185.60" arrivalSpeed="11.88" duration="72.00" routeLength="575.13" waitingTime="17.00" waitingCount="1" stopTime="0.00" timeLoss="26.46" rerouteNo="0" devices="tripinfo_115" vType="DEFAULT_VEHTYPE" speedFactor="0.92" vaporized=""/>
    <tripinfo id="198" depart="155.00" departLane="540_4way_324to4way_304_0" departPos="5.10" departSpeed="0.00" departDelay="0.56" arrival="173.00" arrivalLane="540_4way_324to4way_304_0" arrivalPos="185.60" arrivalSpeed="12.11" duration="18.00" routeLength="180.50" waitingTime="0.00" waitingCount="0" stopTime="0.00" timeLoss="3.02" rerouteNo="0" devices="tripinfo_198" vType="DEFAULT_VEHTYPE" speedFactor="0.87" vaporized=""/>
    <tripinfo id="25" depart="20.00" departLane="426_4way_246to4way_247_0" departPos="5.10" departSpeed="0.00" departDelay="0.50" arrival="179.00" arrivalLane="355_4way_229to4way_209_0" arrivalPos="185.60" arrivalSpeed="13.13" duration="159.00" routeLength="975.13" waitingTime="65.00" waitingCount="2" stopTime="0.00" timeLoss="83.94" rerouteNo="0" devices="tripinfo_25" vType="DEFAULT_VEHTYPE" speedFactor="0.95" vaporized=""/>
    <tripinfo id="156" depart="122.00" departLane="81_3way_379to3way_359_0" departPos="5.10" departSpeed="0.00" departDelay="0.32" arrival="190.00" arrivalLane="67_3way_319to3way_299_0" arrivalPos="185.60" arrivalSpeed="12.35" duration="68.00" routeLength="780.50" waitingTime="0.00" waitingCount="0" stopTime="0.00" timeLoss="6.36" rerouteNo="0" devices="tripinfo_156" vType="DEFAULT_VEHTYPE" speedFactor="0.91" vaporized=""/>
    <tripinfo id="127" depart="100.00" departLane="78_3way_339to4way_338_0" departPos="5.10" departSpeed="0.00" departDelay="0.94" arrival="204.00" arrivalLane="604_4way_337to4way_336_0" arrivalPos="185.60" arrivalSpeed="13.00" duration="104.00" routeLength="580.50" waitingTime="46.00" waitingCount="2" stopTime="0.00" timeLoss="61.88" rerouteNo="0" devices="tripinfo_127" vType="DEFAULT_VEHTYPE" speedFactor="1.00" vaporized=""/>
    <tripinfo id="53" depart="42.00" departLane="393_4way_229to4way_230_0" departPos="5.10" departSpeed="0.00" departDelay="0.66" arrival="205.00" arrivalLane="532_4way_50to4way_30_0" arrivalPos="185.60" arrivalSpeed="15.33" duration="163.00" routeLength="2175.13" waitingTime="17.00" waitingCount="2" stopTime="0.00" timeLoss="38.85" rerouteNo="0" devices="tripinfo_53" vType="DEFAULT_VEHTYPE" speedFactor="1.27" vaporized=""/>
    <tripinfo id="20" depart="16.00" departLane="427_4way_246to4way_266_0" departPos="5.10" departSpeed="0.00" departDelay="0.40" arrival="206.00" arrivalLane="579_4way_324to4way_344_0" arrivalPos="185.60" arrivalSpeed="11.93" duration="190.00" routeLength="1374.93" waitingTime="57.00" waitingCount="2" stopTime="0.00" timeLoss="77.67" rerouteNo="0" devices="tripinfo_20" vType="DEFAULT_VEHTYPE" speedFactor="0.89" vaporized=""/>
    <tripinfo id="59" depart="47.00" departLane="178_4way_112to4way_113_0" departPos="5.10" departSpeed="0.00" departDelay="0.98" arrival="208.00" arrivalLane="296_4way_175to4way_176_0" arrivalPos="185.60" arrivalSpeed="14.24" duration="161.00" routeLength="1374.93" waitingTime="41.00" waitingCount="1" stopTime="0.00" timeLoss="62.48" rerouteNo="0" devices="tripinfo_59" vType="DEFAULT_VEHTYPE" speedFactor="1.03" vaporized=""/>
    <tripinfo id="62" depart="49.00" departLane="217_4way_150to4way_130_0" departPos="5.10" departSpeed="0.00" departDelay="0.64" arrival="210.00" arrivalLane="208_4way_127to4way_126_0" arrivalPos="185.60" arrivalSpeed="14.19" duration="161.00" routeLength="975.13" waitingTime="69.00" waitingCount="2" stopTime="0.00" timeLoss="92.51" rerouteNo="0" devices="tripinfo_62" vType="DEFAULT_VEHTYPE" speedFactor="1.05" vaporized=""/>
    <tripinfo id="138" depart="108.00" departLane="406_4way_234to4way_254_0" departPos="5.10" departSpeed="0.00" departDelay="0.36" arrival="220.00" arrivalLane="487_4way_276to4way_277_0" arrivalPos="185.60" arrivalSpeed="12.80" duration="112.00" routeLength="975.13" waitingTime="23.00" waitingCount="1" stopTime="0.00" timeLoss="40.70" rerouteNo="0" devices="tripinfo_138" vType="DEFAULT_VEHTYPE" speedFactor="1.00" vaporized=""/>
    <tripinfo id="10" depart="8.00" departLane="405_4way_234to4way_235_0" departPos="5.10" departSpeed="0.00" departDelay="0.20" arrival="221.00" arrivalLane="374_4way_238to4way_218_0" arrivalPos="185.60" arrivalSpeed="13.18" duration="213.00" routeLength="975.13" waitingTime="119.00" waitingCount="3" stopTime="0.00" timeLoss="144.10" rerouteNo="0" devices="tripinfo_10" vType="DEFAULT_VEHTYPE" speedFactor="1.04" vaporized=""/>
    <tripinfo id="8" depart="7.00" departLane="188_4way_135to4way_115_0" departPos="5.10" departSpeed="0.00" departDelay="0.76" arrival="222.00" arrivalLane="5_3way_10to3way_9_0" arrivalPos="185.60" arrivalSpeed="12.76" duration="215.00" routeLength="2375.13" waitingTime="22.00" waitingCount="1" stopTime="0.00" timeLoss="38.76" rerouteNo="0" devices="tripinfo_8" vType="DEFAULT_VEHTYPE" speedFactor="0.98" vaporized=""/>
    <tripinfo id="177" depart="139.00" departLane="634_4way_371to4way_351_0" departPos="5.10" departSpeed="0.00" departDelay="0.94" arrival="232.00" arrivalLane="547_4way_309to4way_308_0" arrivalPos="185.60" arrivalSpeed="14.07" duration="93.00" routeLength="1175.13" waitingTime="0.00" waitingCount="0" stopTime="0.00" timeLoss="9.76" rerouteNo="0" devices="tripinfo_177" vType="DEFAULT_VEHTYPE" speedFactor="1.03" vaporized=""/>
    <tripinfo id="34" depart="27.00" departLane="117_3way_396to3way_395_0" departPos="5.10" departSpeed="0.00" departDelay="0.48" arrival="241.00" arrivalLane="297_4way_195to4way_175_0" arrivalPos="185.60" arrivalSpeed="13.06" duration="214.00" routeLength="2380.30" waitingTime="12.00" waitingCount="1" stopTime="0.00" timeLoss="34.16" rerouteNo="0" devices="tripinfo_34" vType="DEFAULT_VEHTYPE" speedFactor="0.96" vaporized=""/>
    <tripinfo id="67" depart="53.00" departLane="628_4way_369to4way_349_0" departPos="5.10" departSpeed="0.00" departDelay="0.74" arrival="241.00" arrivalLane="355_4way_229to4way_209_0" arrivalPos="185.60" arrivalSpeed="11.13" duration="188.00" routeLength="1580.50" waitingTime="43.00" waitingCount="1" stopTime="0.00" timeLoss="58.17" rerouteNo="0" devices="tripinfo_67" vType="DEFAULT_VEHTYPE" speedFactor="0.88" vaporized=""/>
    <tripinfo id="108" depart="85.00" departLane="242_4way_165to4way_145_0" departPos="5.10" departSpeed="0.00" departDelay="0.76" arrival="242.00" arrivalLane="414_4way_25to4way_24_0" arrivalPos="185.60" arrivalSpeed="12.09" duration="157.00" routeLength="1575.13" waitingTime="10.00" waitingCount="1" stopTime="0.00" timeLoss="26.72" rerouteNo="0" devices="tripinfo_108" vType="DEFAULT_VEHTYPE" speedFactor="0.88" vaporized=""/>
    <tripinfo id="103" depart="81.00" departLane="655_4way_366to4way_367_0" departPos="5.10" departSpeed="0.00" departDelay="0.66" arrival="246.00" arrivalLane="661_4way_370to4way_371_0" arrivalPos="185.60" arrivalSpeed="15.94" duration="165.00" routeLength="980.50" waitingTime="63.00" waitingCount="2" stopTime="0.00" timeLoss="103.43" rerouteNo="0" devices="tripinfo_103" vType="DEFAULT_VEHTYPE" speedFactor="1.15" vaporized=""/>
    <tripinfo id="135" depart="106.00" departLane="229_4way_136to4way_156_0" departPos="5.10" departSpeed="0.00" departDelay="0.70" arrival="247.00" arrivalLane="372_4way_217to4way_218_0" arrivalPos="185.60" arrivalSpeed="14.71" duration="141.00" routeLength="1175.13" waitingTime="48.00" waitingCount="1" stopTime="0.00" timeLoss="61.98" rerouteNo="0" devices="tripinfo_135" vType="DEFAULT_VEHTYPE" speedFactor="1.09" vaporized=""/>
    <tripinfo id="51" depart="40.00" departLane="756_4way_98to4way_97_0" departPos="5.10" departSpeed="0.00" departDelay="0.22" arrival="250.00" arrivalLane="752_4way_94to4way_93_0" arrivalPos="185.60" arrivalSpeed="5.86" duration="210.00" routeLength="980.50" waitingTime="89.00" waitingCount="4" stopTime="0.00" timeLoss="114.66" rerouteNo="0" devices="tripinfo_51" vType="DEFAULT_VEHTYPE" speedFactor="0.74" vaporized=""/>
    <tripinfo id="69" depart="54.00" departLane="279_4way_186to4way_166_0" departPos="5.10" departSpeed="0.00" departDelay="0.18" arrival="250.00" arrivalLane="251_4way_150to4way_151_0" arrivalPos="185.60" arrivalSpeed="5.87" duration="196.00" routeLength="1380.30" waitingTime="47.00" waitingCount="2" stopTime="0.00" timeLoss="73.63" rerouteNo="0" devices="tripinfo_69" vType="DEFAULT_VEHTYPE" speedFactor="0.82" vaporized=""/>
    <tripinfo id="95" depart="75.00" departLane="417_4way_241to4way_261_0" departPos="5.10" departSpeed="0.00" departDelay="0.90" arrival="250.00" arrivalLane="500_4way_284to4way_285_0" arrivalPos="185.60" arrivalSpeed="6.03" duration="175.00" routeLength="1175.13" waitingTime="57.00" waitingCount="2" stopTime="0.00" timeLoss="78.32" rerouteNo="0" devices="tripinfo_95" vType="DEFAULT_VEHTYPE" speedFactor="0.88" vaporized=""/>
    <tripinfo id="142" depart="111.00" departLane="61_3way_280to3way_260_0" departPos="5.10" departSpeed="0.00" departDelay="0.24" arrival="250.00" arrivalLane="420_4way_243to4way_244_0" arrivalPos="185.60" arrivalSpeed="4.90" duration="139.00" routeLength="1180.30" waitingTime="42.00" waitingCount="2" stopTime="0.00" timeLoss="60.02" rerouteNo="0" devices="tripinfo_142" vType="DEFAULT_VEHTYPE" speedFactor="1.09" vaporized=""/>
    <tripinfo id="164" depart="128.00" departLane="207_4way_145to4way_125_0" departPos="5.10" departSpeed="0.00" departDelay="0.08" arrival="250.00" arrivalLane="151_4way_104to4way_103_0" arrivalPos="185.60" arrivalSpeed="6.18" duration="122.00" routeLength="775.13" waitingTime="51.00" waitingCount="2" stopTime="0.00" timeLoss="70.88" rerouteNo="0" devices="tripinfo_164" vType="DEFAULT_VEHTYPE" speedFactor="1.11" vaporized=""/>
    <tripinfo id="203" depart="159.00" departLane="708_4way_62to4way_82_0" departPos="5.10" departSpeed="0.00" departDelay="0.66" arrival="250.00" arrivalLane="742_4way_83to4way_84_0" arrivalPos="185.60" arrivalSpeed="5.89" duration="91.00" routeLength="575.13" waitingTime="31.00" waitingCount="2" stopTime="0.00" timeLoss="46.36" rerouteNo="0" devices="tripinfo_203" vType="DEFAULT_VEHTYPE" speedFactor="0.95" vaporized=""/>
    <tripinfo id="303" depart="237.00" departLane="148_4way_102to4way_103_0" departPos="5.10" departSpeed="0.00" departDelay="0.66" arrival="254.00" arrivalLane="148_4way_102to4way_103_0" arrivalPos="185.60" arrivalSpeed="14.08" duration="17.00" routeLength="180.50" waitingTime="0.00" waitingCount="0" stopTime="0.00" timeLoss="3.97" rerouteNo="0" devices="tripinfo_303" vType="DEFAULT_VEHTYPE" speedFactor="1.02" vaporized=""/>
    <tripinfo id="201" depart="157.00" departLane="568_4way_317to4way_337_0" departPos="5.10" departSpeed="0.00" departDelay="0.22" arrival="259.00" arrivalLane="118_4way_375to3way_395_0" arrivalPos="185.60" arrivalSpeed="12.97" duration="102.00" routeLength="1174.93" waitingTime="0.00" waitingCount="0" stopTime="0.00" timeLoss="9.71" rerouteNo="0" devices="tripinfo_201" vType="DEFAULT_VEHTYPE" speedFactor="0.93" vaporized=""/>
    <tripinfo id="257" depart="201.00" departLane="441_4way_252to4way_272_0" departPos="5.10" departSpeed="0.00" departDelay="0.54" arrival="259.00" arrivalLane="475_4way_271to4way_270_0" arrivalPos="185.60" arrivalSpeed="10.81" duration="58.00" routeLength="580.30" waitingTime="0.00" waitingCount="0" stopTime="0.00" timeLoss="5.92" rerouteNo="0" devices="tripinfo_257" vType="DEFAULT_VEHTYPE" speedFactor="0.83" vaporized=""/>
    <tripinfo id="122" depart="96.00" departLane="463_4way_265to4way_266_0" departPos="5.10" departSpeed="0.00" departDelay="0.84" arrival="263.00" arrivalLane="480_4way_272to4way_292_0" arrivalPos="185.60" arrivalSpeed="15.60" duration="167.00" routeLength="1580.30" waitingTime="49.00" waitingCount="2" stopTime="0.00" timeLoss="71.29" rerouteNo="0" devices="tripinfo_122" vType="DEFAULT_VEHTYPE" speedFactor="1.20" vaporized=""/>
    <tripinfo id="175" depart="137.00" departLane="23_3way_15to3way_14_0" departPos="5.10" departSpeed="0.00" departDelay="0.50" arrival="263.00" arrivalLane="726_4way_71to4way_91_0" arrivalPos="185.60" arrivalSpeed="13.38" duration="126.00" routeLength="1575.13" waitingTime="0.00" waitingCount="0" stopTime="0.00" timeLoss="10.16" rerouteNo="0" devices="tripinfo_175" vType="DEFAULT_VEHTYPE" speedFactor="0.99" vaporized=""/>
    <tripinfo id="26" depart="21.00" departLane="115_3way_394to3way_395_0" departPos="5.10" departSpeed="0.00" departDelay="0.72" arrival="264.00" arrivalLane="530_4way_318to4way_298_0" arrivalPos="185.60" arrivalSpeed="13.47" duration="243.00" routeLength="1769.56" waitingTime="89.00" waitingCount="3" stopTime="0.00" timeLoss="117.85" rerouteNo="0" devices="tripinfo_26" vType="DEFAULT_VEHTYPE" speedFactor="1.03" vaporized=""/>
    <tripinfo id="187" depart="146.00" departLane="33_3way_180to3way_160_0" departPos="5.10" departSpeed="0.00" departDelay="0.14" arrival="264.00" arrivalLane="201_4way_142to4way_122_0" arrivalPos="185.60" arrivalSpeed="13.17" duration="118.00" routeLength="974.93" waitingTime="37.00" waitingCount="1" stopTime="0.00" timeLoss="48.41" rerouteNo="0" devices="tripinfo_187" vType="DEFAULT_VEHTYPE" speedFactor="1.03" vaporized=""/>
    <tripinfo id="32" depart="25.00" departLane="711_4way_65to4way_64_0" departPos="5.10" departSpeed="0.00" departDelay="0.04" arrival="265.00" arrivalLane="198_4way_122to4way_121_0" arrivalPos="185.60" arrivalSpeed="13.74" duration="240.00" routeLength="1374.93" waitingTime="109.00" waitingCount="4" stopTime="0.00" timeLoss="139.09" rerouteNo="0" devices="tripinfo_32" vType="DEFAULT_VEHTYPE" speedFactor="1.00" vaporized=""/>
    <tripinfo id="37" depart="29.00" departLane="27_3way_16to3way_15_0" departPos="5.10" departSpeed="0.00" departDelay="0.14" arrival="265.00" arrivalLane="181_4way_114to4way_113_0" arrivalPos="185.60" arrivalSpeed="12.72" duration="236.00" routeLength="1574.93" waitingTime="105.00" waitingCount="1" stopTime="0.00" timeLoss="120.29" rerouteNo="0" devices="tripinfo_37" vType="DEFAULT_VEHTYPE" speedFactor="0.99" vaporized=""/>
    <tripinfo id="65" depart="51.00" departLane="279_4way_166to4way_186_0" departPos="5.10" departSpeed="0.00" departDelay="0.30" arrival="265.00" arrivalLane="393_4way_229to4way_230_0" arrivalPos="185.60" arrivalSpeed="16.39" duration="214.00" routeLength="1375.13" waitingTime="95.00" waitingCount="3" stopTime="0.00" timeLoss="129.78" rerouteNo="0" devices="tripinfo_65" vType="DEFAULT_VEHTYPE" speedFactor="1.20" vaporized=""/>
    <tripinfo id="149" depart="117.00" departLane="739_4way_78to4way_98_0" departPos="5.10" departSpeed="0.00" departDelay="0.78" arrival="265.00" arrivalLane="267_4way_158to4way_178_0" arrivalPos="185.60" arrivalSpeed="12.94" duration="148.00" routeLength="980.50" waitingTime="55.00" waitingCount="2" stopTime="0.00" timeLoss="73.24" rerouteNo="0" devices="tripinfo_149" vType="DEFAULT_VEHTYPE" speedFactor="0.95" vaporized=""/>
    <tripinfo id="158" depart="124.00" departLane="166_4way_109to4way_108_0" departPos="5.10" departSpeed="0.00" departDelay="0.76" arrival="265.00" arrivalLane="160_4way_107to4way_106_0" arrivalPos="185.60" arrivalSpeed="13.01" duration="141.00" routeLength="580.50" waitingTime="79.00" waitingCount="2" stopTime="0.00" timeLoss="97.42" rerouteNo="0" devices="tripinfo_158" vType="DEFAULT_VEHTYPE" speedFactor="0.96" vaporized=""/>
    <tripinfo id="29" depart="23.00" departLane="235_4way_142to4way_143_0" departPos="5.10" departSpeed="0.00" departDelay="0.38" arrival="266.00" arrivalLane="164_4way_127to4way_107_0" arrivalPos="185.60" arrivalSpeed="12.17" duration="243.00" routeLength="1375.13" waitingTime="104.00" waitingCount="4" stopTime="0.00" timeLoss="137.52" rerouteNo="0" devices="tripinfo_29" vType="DEFAULT_VEHTYPE" speedFactor="0.95" vaporized=""/>
    <tripinfo id="98" depart="77.00" departLane="341_4way_222to4way_202_0" departPos="5.10" departSpeed="0.00" departDelay="0.56" arrival="266.00" arrivalLane="376_4way_42to4way_22_0" arrivalPos="185.60" arrivalSpeed="11.54" duration="189.00" routeLength="1980.50" waitingTime="12.00" waitingCount="1" stopTime="0.00" timeLoss="26.99" rerouteNo="0" devices="tripinfo_98" vType="DEFAULT_VEHTYPE" speedFactor="0.88" vaporized=""/>
    <tripinfo id="163" depart="128.00" departLane="179_4way_132to4way_112_0" departPos="5.10" departSpeed="0.00" departDelay="0.86" arrival="266.00" arrivalLane="571_4way_52to4way_32_0" arrivalPos="185.60" arrivalSpeed="12.16" duration="138.00" routeLength="980.50" waitingTime="45.00" waitingCount="2" stopTime="0.00" timeLoss="62.54" rerouteNo="0" devices="tripinfo_163" vType="DEFAULT_VEHTYPE" speedFactor="0.94" vaporized=""/>
    <tripinfo id="189" depart="148.00" departLane="512_4way_30to4way_29_0" departPos="5.10" departSpeed="0.00" departDelay="0.58" arrival="266.00" arrivalLane="474_4way_27to4way_47_0" arrivalPos="185.60" arrivalSpeed="12.09" duration="118.00" routeLength="775.13" waitingTime="40.00" waitingCount="2" stopTime="0.00" timeLoss="55.94" rerouteNo="0" devices="tripinfo_189" vType="DEFAULT_VEHTYPE" speedFactor="0.92" vaporized=""/>
    <tripinfo id="66" depart="52.00" departLane="379_4way_223to4way_222_0" departPos="5.10" departSpeed="0.00" departDelay="0.52" arrival="267.00" arrivalLane="88_4way_361to3way_381_0" arrivalPos="185.60" arrivalSpeed="11.46" duration="215.00" routeLength="1969.56" waitingTime="23.00" waitingCount="2" stopTime="0.00" timeLoss="47.73" rerouteNo="0" devices="tripinfo_66" vType="DEFAULT_VEHTYPE" speedFactor="0.86" vaporized=""/>
    <tripinfo id="116" depart="91.00" departLane="11_3way_11to4way_31_0" departPos="5.10" departSpeed="0.00" departDelay="0.52" arrival="272.00" arrivalLane="248_4way_148to4way_168_0" arrivalPos="185.60" arrivalSpeed="13.51" duration="181.00" routeLength="2174.93" waitingTime="2.00" waitingCount="1" stopTime="0.00" timeLoss="20.42" rerouteNo="0" devices="tripinfo_116" vType="DEFAULT_VEHTYPE" speedFactor="0.99" vaporized=""/>
    <tripinfo id="207" depart="162.00" departLane="377_4way_222to4way_221_0" departPos="5.10" departSpeed="0.00" departDelay="0.54" arrival="274.00" arrivalLane="534_4way_301to4way_321_0" arrivalPos="185.60" arrivalSpeed="16.87" duration="112.00" routeLength="1175.13" waitingTime="27.00" waitingCount="1" stopTime="0.00" timeLoss="42.67" rerouteNo="0" devices="tripinfo_207" vType="DEFAULT_VEHTYPE" speedFactor="1.24" vaporized=""/>
    <tripinfo id="332" depart="259.00" departLane="542_4way_305to4way_325_0" departPos="5.10" departSpeed="0.00" departDelay="0.04" arrival="278.00" arrivalLane="542_4way_305to4way_325_0" arrivalPos="185.60" arrivalSpeed="11.51" duration="19.00" routeLength="180.50" waitingTime="0.00" waitingCount="0" stopTime="0.00" timeLoss="3.08" rerouteNo="0" devices="tripinfo_332" vType="DEFAULT_VEHTYPE" speedFactor="0.83" vaporized=""/>
    <tripinfo id="17" depart="14.00" departLane="359_4way_230to4way_210_0" departPos="5.10" departSpeed="0.00" departDelay="0.74" arrival="279.00" arrivalLane="140_3way_9to3way_8_0" arrivalPos="185.60" arrivalSpeed="13.87" duration="265.00" routeLength="2575.13" waitingTime="57.00" waitingCount="3" stopTime="0.00" timeLoss="84.69" rerouteNo="0" devices="tripinfo_17" vType="DEFAULT_VEHTYPE" speedFactor="1.04" vaporized=""/>
    <tripinfo id="74" depart="58.00" departLane="647_4way_378to4way_358_0" departPos="5.10" departSpeed="0.00" departDelay="0.28" arrival="283.00" arrivalLane="479_4way_273to4way_272_0" arrivalPos="185.60" arrivalSpeed="10.70" duration="225.00" routeLength="2175.13" waitingTime="10.00" waitingCount="1" stopTime="0.00" timeLoss="30.92" rerouteNo="0" devices="tripinfo_74" vType="DEFAULT_VEHTYPE" speedFactor="0.81" vaporized=""/>
    <tripinfo id="324" depart="253.00" departLane="120_3way_396to4way_376_0" departPos="5.10" departSpeed="0.00" departDelay="0.28" arrival="286.00" arrivalLane="666_4way_376to4way_375_0" arrivalPos="185.60" arrivalSpeed="13.45" duration="33.00" routeLength="375.13" waitingTime="0.00" waitingCount="0" stopTime="0.00" timeLoss="6.63" rerouteNo="0" devices="tripinfo_324" vType="DEFAULT_VEHTYPE" speedFactor="1.05" vaporized=""/>
    <tripinfo id="326" depart="255.00" departLane="18_3way_120to4way_121_0" departPos="5.10" departSpeed="0.00" departDelay="0.72" arrival="287.00" arrivalLane="198_4way_121to4way_122_0" arrivalPos="185.60" arrivalSpeed="13.53" duration="32.00" routeLength="380.50" waitingTime="0.00" waitingCount="0" stopTime="0.00" timeLoss="3.96" rerouteNo="0" devices="tripinfo_326" vType="DEFAULT_VEHTYPE" speedFactor="1.00" vaporized=""/>
    <tripinfo id="159" depart="125.00" departLane="663_4way_372to4way_373_0" departPos="5.10" departSpeed="0.00" departDelay="0.98" arrival="297.00" arrivalLane="642_4way_375to4way_355_0" arrivalPos="185.60" arrivalSpeed="13.55" duration="172.00" routeLength="775.13" waitingTime="100.00" waitingCount="1" stopTime="0.00" timeLoss="114.36" rerouteNo="0" devices="tripinfo_159" vType="DEFAULT_VEHTYPE" speedFactor="0.99" vaporized=""/>
    <tripinfo id="284" depart="222.00" departLane="230_4way_138to4way_137_0" departPos="5.10" departSpeed="0.00" departDelay="0.48" arrival="297.00" arrivalLane="187_4way_116to4way_115_0" arrivalPos="185.60" arrivalSpeed="14.96" duration="75.00" routeLength="774.93" waitingTime="7.00" waitingCount="1" stopTime="0.00" timeLoss="23.53" rerouteNo="0" devices="tripinfo_284" vType="DEFAULT_VEHTYPE" speedFactor="1.12" vaporized=""/>
    <tripinfo id="117" depart="92.00" departLane="244_4way_146to4way_166_0" departPos="5.10" departSpeed="0.00" departDelay="0.74" arrival="301.00" arrivalLane="339_4way_201to4way_221_0" arrivalPos="185.60" arrivalSpeed="11.34" duration="209.00" routeLength="1774.93" waitingTime="43.00" waitingCount="2" stopTime="0.00" timeLoss="66.16" rerouteNo="0" devices="tripinfo_117" vType="DEFAULT_VEHTYPE" speedFactor="0.91" vaporized=""/>
    <tripinfo id="41" depart="32.00" departLane="179_4way_112to4way_132_0" departPos="5.10" departSpeed="0.00" departDelay="0.02" arrival="303.00" arrivalLane="38_4way_178to3way_179_0" arrivalPos="185.60" arrivalSpeed="15.43" duration="271.00" routeLength="1975.13" waitingTime="117.00" waitingCount="3" stopTime="0.00" timeLoss="143.87" rerouteNo="0" devices="tripinfo_41" vType="DEFAULT_VEHTYPE" speedFactor="1.12" vaporized=""/>
    <tripinfo id="318" depart="249.00" departLane="109_3way_392to3way_391_0" departPos="5.10" departSpeed="0.00" departDelay="0.96" arrival="310.00" arrivalLane="101_3way_389to3way_388_0" arrivalPos="185.60" arrivalSpeed="12.79" duration="61.00" routeLength="780.50" waitingTime="0.00" waitingCount="0" stopTime="0.00" timeLoss="5.36" rerouteNo="0" devices="tripinfo_318" vType="DEFAULT_VEHTYPE" speedFactor="1.01" vaporized=""/>
    <tripinfo id="245" depart="192.00" departLane="512_4way_30to4way_29_0" departPos="5.10" departSpeed="0.00" departDelay="0.90" arrival="311.00" arrivalLane="395_4way_24to4way_23_0" arrivalPos="185.60" arrivalSpeed="6.74" duration="119.00" routeLength="1380.50" waitingTime="10.00" waitingCount="2" stopTime="0.00" timeLoss="32.28" rerouteNo="0" devices="tripinfo_245" vType="DEFAULT_VEHTYPE" speedFactor="1.15" vaporized=""/>