<?xml version="1.0" encoding="UTF-8"?>

<!-- generated on 2023-08-02 20:38:28 by Eclipse SUMO sumo Version 1.12.0
<configuration xmlns:xsi="http://www.w3.org/2001/XMLSchema-instance" xsi:noNamespaceSchemaLocation="http://sumo.dlr.de/xsd/sumoConfiguration.xsd">

    <input>
        <net-file value="../../data_generation/sq.net.xml"/>
        <route-files value="../../data_generation/sq.rou.xml"/>
    </input>

    <output>
        <tripinfo-output value="tripinfo.xml"/>
        <statistic-output value="statistic.xml"/>
    </output>

    <time>
        <begin value="0"/>
        <end value="3600"/>
    </time>

    <processing>
        <time-to-teleport value="-1"/>
    </processing>

    <traci_server>
        <remote-port value="46597"/>
    </traci_server>

    <random_number>
        <seed value="1395"/>
    </random_number>

    <gui_only>
        <gui-settings-file value="../../data_generation/view_HY_0402.xml"/>
    </gui_only>

</configuration>
-->

<tripinfos xmlns:xsi="http://www.w3.org/2001/XMLSchema-instance" xsi:noNamespaceSchemaLocation="http://sumo.dlr.de/xsd/tripinfo_file.xsd">
    <tripinfo id="22" depart="3.00" departLane="478_4way_291to4way_271_0" departPos="5.10" departSpeed="0.00" departDelay="0.25" arrival="13.00" arrivalLane="478_4way_291to4way_271_0" arrivalPos="85.60" arrivalSpeed="13.25" duration="10.00" routeLength="80.50" waitingTime="0.00" waitingCount="0" stopTime="0.00" timeLoss="3.34" rerouteNo="0" devices="tripinfo_22" vType="DEFAULT_VEHTYPE" speedFactor="1.00" vaporized=""/>
    <tripinfo id="18" depart="3.00" departLane="359_4way_230to4way_210_0" departPos="5.10" departSpeed="0.00" departDelay="0.75" arrival="22.00" arrivalLane="322_4way_210to4way_190_0" arrivalPos="85.60" arrivalSpeed="12.51" duration="19.00" routeLength="180.50" waitingTime="0.00" waitingCount="0" stopTime="0.00" timeLoss="5.27" rerouteNo="0" devices="tripinfo_18" vType="DEFAULT_VEHTYPE" speedFactor="0.96" vaporized=""/>
    <tripinfo id="160" depart="20.00" departLane="90_3way_382to4way_362_0" departPos="5.10" departSpeed="0.00" departDelay="0.00" arrival="30.00" arrivalLane="90_3way_382to4way_362_0" arrivalPos="85.60" arrivalSpeed="11.67" duration="10.00" routeLength="80.50" waitingTime="0.00" waitingCount="0" stopTime="0.00" timeLoss="3.03" rerouteNo="0" devices="tripinfo_160" vType="DEFAULT_VEHTYPE" speedFactor="0.88" vaporized=""/>
    <tripinfo id="27" depart="4.00" departLane="41_3way_180to3way_200_0" departPos="5.10" departSpeed="0.00" departDelay="0.62" arrival="31.00" arrivalLane="54_3way_220to4way_221_0" arrivalPos="85.60" arrivalSpeed="13.77" duration="27.00" routeLength="275.13" waitingTime="0.00" waitingCount="0" stopTime="0.00" timeLoss="6.36" rerouteNo="0" devices="tripinfo_27" vType="DEFAULT_VEHTYPE" speedFactor="1.03" vaporized=""/>
    <tripinfo id="167" depart="21.00" departLane="697_4way_54to4way_74_0" departPos="5.10" departSpeed="0.00" departDelay="0.12" arrival="31.00" arrivalLane="697_4way_54to4way_74_0" arrivalPos="85.60" arrivalSpeed="11.39" duration="10.00" routeLength="80.50" waitingTime="0.00" waitingCount="0" stopTime="0.00" timeLoss="2.51" rerouteNo="0" devices="tripinfo_167" vType="DEFAULT_VEHTYPE" speedFactor="0.85" vaporized=""/>
    <tripinfo id="198" depart="25.00" departLane="540_4way_324to4way_304_0" departPos="5.10" departSpeed="0.00" departDelay="0.25" arrival="35.00" arrivalLane="540_4way_324to4way_304_0" arrivalPos="85.60" arrivalSpeed="11.52" duration="10.00" routeLength="80.50" waitingTime="0.00" waitingCount="0" stopTime="0.00" timeLoss="3.00" rerouteNo="0" devices="tripinfo_198" vType="DEFAULT_VEHTYPE" speedFactor="0.87" vaporized=""/>
    <tripinfo id="93" depart="13.00" departLane="628_4way_369to4way_349_0" departPos="5.10" departSpeed="0.00" departDelay="1.37" arrival="48.00" arrivalLane="547_4way_309to4way_308_0" arrivalPos="85.60" arrivalSpeed="12.96" duration="35.00" routeLength="375.13" waitingTime="0.00" waitingCount="0" stopTime="0.00" timeLoss="7.57" rerouteNo="0" devices="tripinfo_93" vType="DEFAULT_VEHTYPE" speedFactor="1.00" vaporized=""/>
    <tripinfo id="7" depart="1.00" departLane="77_3way_359to3way_339_0" departPos="5.10" departSpeed="0.00" departDelay="0.12" arrival="50.00" arrivalLane="55_3way_259to3way_239_0" arrivalPos="85.60" arrivalSpeed="12.35" duration="49.00" routeLength="580.50" waitingTime="0.00" waitingCount="0" stopTime="0.00" timeLoss="4.80" rerouteNo="0" devices="tripinfo_7" vType="DEFAULT_VEHTYPE" speedFactor="0.95" vaporized=""/>
    <tripinfo id="332" depart="42.00" departLane="542_4way_305to4way_325_0" departPos="5.10" departSpeed="0.00" departDelay="0.50" arrival="52.00" arrivalLane="542_4way_305to4way_325_0" arrivalPos="85.60" arrivalSpeed="10.86" duration="10.00" routeLength="80.50" waitingTime="0.00" waitingCount="0" stopTime="0.00" timeLoss="2.51" rerouteNo="0" devices="tripinfo_332" vType="DEFAULT_VEHTYPE" speedFactor="0.83" vaporized=""/>
    <tripinfo id="156" depart="20.00" departLane="81_3way_379to3way_359_0" departPos="5.10" departSpeed="0.00" departDelay="0.50" arrival="55.00" arrivalLane="67_3way_319to3way_299_0" arrivalPos="85.60" arrivalSpeed="12.29" duration="35.00" routeLength="380.50" waitingTime="0.00" waitingCount="0" stopTime="0.00" timeLoss="4.11" rerouteNo="0" devices="tripinfo_156" vType="DEFAULT_VEHTYPE" speedFactor="0.91" vaporized=""/>
    <tripinfo id="324" depart="41.00" departLane="120_3way_396to4way_376_0" departPos="5.10" departSpeed="0.00" departDelay="0.50" arrival="59.00" arrivalLane="666_4way_376to4way_375_0" arrivalPos="85.60" arrivalSpeed="13.87" duration="18.00" routeLength="175.13" waitingTime="0.00" waitingCount="0" stopTime="0.00" timeLoss="5.10" rerouteNo="0" devices="tripinfo_324" vType="DEFAULT_VEHTYPE" speedFactor="1.05" vaporized=""/>
    <tripinfo id="149" depart="19.00" departLane="739_4way_78to4way_98_0" departPos="5.10" departSpeed="0.00" departDelay="0.37" arrival="60.00" arrivalLane="267_4way_158to4way_178_0" arrivalPos="85.60" arrivalSpeed="13.02" duration="41.00" routeLength="480.50" waitingTime="0.00" waitingCount="0" stopTime="0.00" timeLoss="4.22" rerouteNo="0" devices="tripinfo_149" vType="DEFAULT_VEHTYPE" speedFactor="0.95" vaporized=""/>
    <tripinfo id="163" depart="21.00" departLane="179_4way_132to4way_112_0" departPos="5.10" departSpeed="0.00" departDelay="0.62" arrival="63.00" arrivalLane="571_4way_52to4way_32_0" arrivalPos="85.60" arrivalSpeed="12.27" duration="42.00" routeLength="480.50" waitingTime="0.00" waitingCount="0" stopTime="0.00" timeLoss="4.61" rerouteNo="0" devices="tripinfo_163" vType="DEFAULT_VEHTYPE" speedFactor="0.94" vaporized=""/>
    <tripinfo id="351" depart="44.00" departLane="73_3way_339to3way_319_0" departPos="5.10" departSpeed="0.00" departDelay="0.12" arrival="63.00" arrivalLane="67_3way_319to3way_299_0" arrivalPos="85.60" arrivalSpeed="10.70" duration="19.00" routeLength="180.50" waitingTime="0.00" waitingCount="0" stopTime="0.00" timeLoss="3.66" rerouteNo="0" devices="tripinfo_351" vType="DEFAULT_VEHTYPE" speedFactor="0.85" vaporized=""/>
    <tripinfo id="445" depart="56.00" departLane="465_4way_267to4way_266_0" departPos="5.10" departSpeed="0.00" departDelay="0.37" arrival="66.00" arrivalLane="465_4way_267to4way_266_0" arrivalPos="85.60" arrivalSpeed="13.04" duration="10.00" routeLength="80.50" waitingTime="0.00" waitingCount="0" stopTime="0.00" timeLoss="3.53" rerouteNo="0" devices="tripinfo_445" vType="DEFAULT_VEHTYPE" speedFactor="1.02" vaporized=""/>
    <tripinfo id="37" depart="5.00" departLane="27_3way_16to3way_15_0" departPos="5.10" departSpeed="0.00" departDelay="0.37" arrival="69.00" arrivalLane="183_4way_93to4way_113_0" arrivalPos="85.60" arrivalSpeed="13.08" duration="64.00" routeLength="775.13" waitingTime="0.00" waitingCount="0" stopTime="0.00" timeLoss="7.02" rerouteNo="0" devices="tripinfo_37" vType="DEFAULT_VEHTYPE" speedFactor="0.99" vaporized=""/>
    <tripinfo id="126" depart="16.00" departLane="328_4way_193to4way_213_0" departPos="5.10" departSpeed="0.00" departDelay="0.25" arrival="70.00" arrivalLane="560_4way_313to4way_333_0" arrivalPos="85.60" arrivalSpeed="13.08" duration="54.00" routeLength="680.50" waitingTime="0.00" waitingCount="0" stopTime="0.00" timeLoss="4.97" rerouteNo="0" devices="tripinfo_126" vType="DEFAULT_VEHTYPE" speedFactor="1.01" vaporized=""/>
    <tripinfo id="303" depart="38.00" departLane="148_4way_102to4way_103_0" departPos="5.10" departSpeed="0.00" departDelay="0.12" arrival="70.00" arrivalLane="148_4way_102to4way_103_0" arrivalPos="85.60" arrivalSpeed="4.36" duration="32.00" routeLength="80.50" waitingTime="18.00" waitingCount="1" stopTime="0.00" timeLoss="26.32" rerouteNo="0" devices="tripinfo_303" vType="DEFAULT_VEHTYPE" speedFactor="1.02" vaporized=""/>
    <tripinfo id="318" depart="40.00" departLane="109_3way_392to3way_391_0" departPos="5.10" departSpeed="0.00" departDelay="0.25" arrival="72.00" arrivalLane="101_3way_389to3way_388_0" arrivalPos="85.60" arrivalSpeed="13.30" duration="32.00" routeLength="380.50" waitingTime="0.00" waitingCount="0" stopTime="0.00" timeLoss="4.44" rerouteNo="0" devices="tripinfo_318" vType="DEFAULT_VEHTYPE" speedFactor="1.01" vaporized=""/>
    <tripinfo id="452" depart="57.00" departLane="755_4way_97to4way_96_0" departPos="5.10" departSpeed="0.00" departDelay="0.50" arrival="76.00" arrivalLane="192_4way_96to4way_116_0" arrivalPos="85.60" arrivalSpeed="14.13" duration="19.00" routeLength="175.13" waitingTime="0.00" waitingCount="0" stopTime="0.00" timeLoss="5.88" rerouteNo="0" devices="tripinfo_452" vType="DEFAULT_VEHTYPE" speedFactor="1.09" vaporized=""/>
    <tripinfo id="72" depart="9.00" departLane="326_4way_192to4way_212_0" departPos="5.10" departSpeed="0.00" departDelay="0.00" arrival="77.00" arrivalLane="520_4way_293to4way_294_0" arrivalPos="85.60" arrivalSpeed="14.86" duration="68.00" routeLength="675.13" waitingTime="11.00" waitingCount="1" stopTime="0.00" timeLoss="24.38" rerouteNo="0" devices="tripinfo_72" vType="DEFAULT_VEHTYPE" speedFactor="1.15" vaporized=""/>
    <tripinfo id="135" depart="17.00" departLane="229_4way_136to4way_156_0" departPos="5.10" departSpeed="0.00" departDelay="0.12" arrival="77.00" arrivalLane="372_4way_217to4way_218_0" arrivalPos="85.60" arrivalSpeed="13.87" duration="60.00" routeLength="575.13" waitingTime="7.00" waitingCount="1" stopTime="0.00" timeLoss="20.84" rerouteNo="0" devices="tripinfo_135" vType="DEFAULT_VEHTYPE" speedFactor="1.09" vaporized=""/>
    <tripinfo id="148" depart="19.00" departLane="118_4way_375to3way_395_0" departPos="5.10" departSpeed="0.00" departDelay="0.50" arrival="77.00" arrivalLane="117_3way_395to3way_396_0" arrivalPos="85.60" arrivalSpeed="14.19" duration="58.00" routeLength="175.13" waitingTime="34.00" waitingCount="1" stopTime="0.00" timeLoss="45.03" rerouteNo="0" devices="tripinfo_148" vType="DEFAULT_VEHTYPE" speedFactor="1.07" vaporized=""/>
    <tripinfo id="203" depart="26.00" departLane="708_4way_62to4way_82_0" departPos="5.10" departSpeed="0.00" departDelay="0.62" arrival="77.00" arrivalLane="742_4way_83to4way_84_0" arrivalPos="85.60" arrivalSpeed="12.49" duration="51.00" routeLength="275.13" waitingTime="19.00" waitingCount="1" stopTime="0.00" timeLoss="29.55" rerouteNo="0" devices="tripinfo_203" vType="DEFAULT_VEHTYPE" speedFactor="0.95" vaporized=""/>
    <tripinfo id="326" depart="41.00" departLane="18_3way_120to4way_121_0" departPos="5.10" departSpeed="0.00" departDelay="0.25" arrival="77.00" arrivalLane="198_4way_121to4way_122_0" arrivalPos="85.60" arrivalSpeed="12.77" duration="36.00" routeLength="180.50" waitingTime="15.00" waitingCount="1" stopTime="0.00" timeLoss="23.01" rerouteNo="0" devices="tripinfo_326" vType="DEFAULT_VEHTYPE" speedFactor="1.00" vaporized=""/>
    <tripinfo id="9" depart="2.00" departLane="733_4way_76to4way_75_0" departPos="5.10" departSpeed="0.00" departDelay="0.87" arrival="78.00" arrivalLane="731_4way_75to4way_74_0" arrivalPos="85.60" arrivalSpeed="12.49" duration="76.00" routeLength="180.50" waitingTime="53.00" waitingCount="1" stopTime="0.00" timeLoss="60.82" rerouteNo="0" devices="tripinfo_9" vType="DEFAULT_VEHTYPE" speedFactor="0.91" vaporized=""/>
    <tripinfo id="14" depart="2.00" departLane="716_4way_66to4way_86_0" departPos="5.10" departSpeed="0.00" departDelay="0.25" arrival="80.00" arrivalLane="315_4way_187to4way_188_0" arrivalPos="85.60" arrivalSpeed="12.28" duration="78.00" routeLength="775.13" waitingTime="1.00" waitingCount="1" stopTime="0.00" timeLoss="18.35" rerouteNo="0" devices="tripinfo_14" vType="DEFAULT_VEHTYPE" speedFactor="0.95" vaporized=""/>
    <tripinfo id="371" depart="47.00" departLane="47_3way_40to3way_20_0" departPos="5.10" departSpeed="0.00" departDelay="0.62" arrival="82.00" arrivalLane="1_3way_1to3way_2_0" arrivalPos="85.60" arrivalSpeed="12.22" duration="35.00" routeLength="383.70" waitingTime="0.00" waitingCount="0" stopTime="0.00" timeLoss="4.20" rerouteNo="0" devices="tripinfo_371" vType="DEFAULT_VEHTYPE" speedFactor="0.92" vaporized=""/>
    <tripinfo id="284" depart="36.00" departLane="196_4way_138to4way_118_0" departPos="5.10" departSpeed="0.00" departDelay="0.50" arrival="83.00" arrivalLane="187_4way_116to4way_115_0" arrivalPos="85.60" arrivalSpeed="15.46" duration="47.00" routeLength="375.13" waitingTime="11.00" waitingCount="1" stopTime="0.00" timeLoss="22.20" rerouteNo="0" devices="tripinfo_284" vType="DEFAULT_VEHTYPE" speedFactor="1.12" vaporized=""/>
    <tripinfo id="23" depart="3.00" departLane="92_3way_383to4way_363_0" departPos="5.10" departSpeed="0.00" departDelay="0.12" arrival="85.00" arrivalLane="416_4way_242to4way_241_0" arrivalPos="85.60" arrivalSpeed="11.31" duration="82.00" routeLength="875.13" waitingTime="0.00" waitingCount="0" stopTime="0.00" timeLoss="8.52" rerouteNo="0" devices="tripinfo_23" vType="DEFAULT_VEHTYPE" speedFactor="0.87" vaporized=""/>
    <tripinfo id="421" depart="53.00" departLane="116_4way_374to3way_394_0" departPos="5.10" departSpeed="0.00" departDelay="0.37" arrival="85.00" arrivalLane="111_3way_393to3way_392_0" arrivalPos="85.60" arrivalSpeed="13.15" duration="32.00" routeLength="280.29" waitingTime="2.00" waitingCount="1" stopTime="0.00" timeLoss="10.22" rerouteNo="0" devices="tripinfo_421" vType="DEFAULT_VEHTYPE" speedFactor="0.99" vaporized=""/>
    <tripinfo id="118" depart="15.00" departLane="745_4way_87to4way_86_0" departPos="5.10" departSpeed="0.00" departDelay="0.25" arrival="86.00" arrivalLane="159_4way_85to4way_105_0" arrivalPos="85.60" arrivalSpeed="13.68" duration="71.00" routeLength="275.13" waitingTime="40.00" waitingCount="1" stopTime="0.00" timeLoss="51.15" rerouteNo="0" devices="tripinfo_118" vType="DEFAULT_VEHTYPE" speedFactor="1.05" vaporized=""/>
    <tripinfo id="531" depart="70.00" departLane="124_3way_5to3way_4_0" departPos="5.10" departSpeed="0.00" departDelay="3.62" arrival="86.00" arrivalLane="69_3way_4to3way_3_0" arrivalPos="85.60" arrivalSpeed="15.02" duration="16.00" routeLength="180.50" waitingTime="0.00" waitingCount="0" stopTime="0.00" timeLoss="3.94" rerouteNo="0" devices="tripinfo_531" vType="DEFAULT_VEHTYPE" speedFactor="1.11" vaporized=""/>
    <tripinfo id="175" depart="22.00" departLane="23_3way_15to3way_14_0" departPos="5.10" departSpeed="0.00" departDelay="0.12" arrival="87.00" arrivalLane="726_4way_71to4way_91_0" arrivalPos="85.60" arrivalSpeed="12.43" duration="65.00" routeLength="775.13" waitingTime="0.00" waitingCount="0" stopTime="0.00" timeLoss="7.11" rerouteNo="0" devices="tripinfo_175" vType="DEFAULT_VEHTYPE" speedFactor="0.99" vaporized=""/>
    <tripinfo id="610" depart="77.00" departLane="413_4way_238to4way_258_0" departPos="5.10" departSpeed="0.00" departDelay="0.75" arrival="87.00" arrivalLane="413_4way_238to4way_258_0" arrivalPos="85.60" arrivalSpeed="12.36" duration="10.00" routeLength="80.50" waitingTime="0.00" waitingCount="0" stopTime="0.00" timeLoss="2.91" rerouteNo="0" devices="tripinfo_610" vType="DEFAULT_VEHTYPE" speedFactor="0.93" vaporized=""/>
    <tripinfo id="233" depart="30.00" departLane="460_4way_263to4way_283_0" departPos="5.10" departSpeed="0.00" departDelay="0.87" arrival="88.00" arrivalLane="580_4way_325to4way_326_0" arrivalPos="85.60" arrivalSpeed="10.42" duration="58.00" routeLength="575.13" waitingTime="0.00" waitingCount="0" stopTime="0.00" timeLoss="6.71" rerouteNo="0" devices="tripinfo_233" vType="DEFAULT_VEHTYPE" speedFactor="0.83" vaporized=""/>
    <tripinfo id="478" depart="60.00" departLane="315_4way_188to4way_187_0" departPos="5.10" departSpeed="0.00" departDelay="0.25" arrival="88.00" arrivalLane="351_4way_207to4way_227_0" arrivalPos="85.60" arrivalSpeed="12.46" duration="28.00" routeLength="275.13" waitingTime="0.00" waitingCount="0" stopTime="0.00" timeLoss="6.04" rerouteNo="0" devices="tripinfo_478" vType="DEFAULT_VEHTYPE" speedFactor="0.96" vaporized=""/>
    <tripinfo id="418" depart="53.00" departLane="131_3way_59to4way_58_0" departPos="5.10" departSpeed="0.00" departDelay="0.75" arrival="92.00" arrivalLane="703_4way_57to4way_77_0" arrivalPos="85.60" arrivalSpeed="10.33" duration="39.00" routeLength="275.13" waitingTime="2.00" waitingCount="1" stopTime="0.00" timeLoss="12.61" rerouteNo="0" devices="tripinfo_418" vType="DEFAULT_VEHTYPE" speedFactor="0.79" vaporized=""/>
    <tripinfo id="278" depart="35.00" departLane="434_4way_26to4way_25_0" departPos="5.10" departSpeed="0.00" departDelay="0.25" arrival="94.00" arrivalLane="375_4way_23to4way_22_0" arrivalPos="85.60" arrivalSpeed="11.61" duration="59.00" routeLength="380.50" waitingTime="19.00" waitingCount="1" stopTime="0.00" timeLoss="28.43" rerouteNo="0" devices="tripinfo_278" vType="DEFAULT_VEHTYPE" speedFactor="0.91" vaporized=""/>
    <tripinfo id="357" depart="45.00" departLane="34_4way_161to3way_160_0" departPos="5.10" departSpeed="0.00" departDelay="0.37" arrival="98.00" arrivalLane="53_3way_220to3way_240_0" arrivalPos="85.60" arrivalSpeed="13.30" duration="53.00" routeLength="475.13" waitingTime="10.00" waitingCount="1" stopTime="0.00" timeLoss="19.54" rerouteNo="0" devices="tripinfo_357" vType="DEFAULT_VEHTYPE" speedFactor="1.04" vaporized=""/>
    <tripinfo id="420" depart="53.00" departLane="142_3way_80to4way_81_0" departPos="5.10" departSpeed="0.00" departDelay="0.50" arrival="108.00" arrivalLane="744_4way_85to4way_86_0" arrivalPos="85.60" arrivalSpeed="12.69" duration="55.00" routeLength="580.50" waitingTime="2.00" waitingCount="1" stopTime="0.00" timeLoss="11.71" rerouteNo="0" devices="tripinfo_420" vType="DEFAULT_VEHTYPE" speedFactor="0.98" vaporized=""/>
    <tripinfo id="8" depart="1.00" departLane="188_4way_135to4way_115_0" departPos="5.10" departSpeed="0.00" departDelay="0.00" arrival="116.00" arrivalLane="5_3way_10to3way_9_0" arrivalPos="85.60" arrivalSpeed="12.94" duration="115.00" routeLength="1175.13" waitingTime="16.00" waitingCount="1" stopTime="0.00" timeLoss="27.01" rerouteNo="0" devices="tripinfo_8" vType="DEFAULT_VEHTYPE" speedFactor="0.98" vaporized=""/>
    <tripinfo id="331" depart="42.00" departLane="90_4way_362to3way_382_0" departPos="5.10" departSpeed="0.00" departDelay="0.62" arrival="117.00" arrivalLane="99_3way_387to3way_388_0" arrivalPos="85.60" arrivalSpeed="12.75" duration="75.00" routeLength="675.13" waitingTime="13.00" waitingCount="1" stopTime="0.00" timeLoss="22.47" rerouteNo="0" devices="tripinfo_331" vType="DEFAULT_VEHTYPE" speedFactor="0.94" vaporized=""/>
    <tripinfo id="741" depart="93.00" departLane="40_4way_38to3way_18_0" departPos="5.10" departSpeed="0.00" departDelay="0.37" arrival="118.00" arrivalLane="31_3way_17to3way_16_0" arrivalPos="85.60" arrivalSpeed="14.40" duration="25.00" routeLength="275.13" waitingTime="0.00" waitingCount="0" stopTime="0.00" timeLoss="6.24" rerouteNo="0" devices="tripinfo_741" vType="DEFAULT_VEHTYPE" speedFactor="1.12" vaporized=""/>
    <tripinfo id="684" depart="86.00" departLane="360_4way_211to4way_212_0" departPos="5.10" departSpeed="0.00" departDelay="0.50" arrival="119.00" arrivalLane="330_4way_214to4way_194_0" arrivalPos="85.60" arrivalSpeed="13.63" duration="33.00" routeLength="375.13" waitingTime="0.00" waitingCount="0" stopTime="0.00" timeLoss="5.61" rerouteNo="0" devices="tripinfo_684" vType="DEFAULT_VEHTYPE" speedFactor="1.01" vaporized=""/>
    <tripinfo id="69" depart="9.00" departLane="313_4way_186to4way_187_0" departPos="5.10" departSpeed="0.00" departDelay="0.37" arrival="126.00" arrivalLane="254_4way_171to4way_151_0" arrivalPos="85.60" arrivalSpeed="10.16" duration="117.00" routeLength="675.13" waitingTime="45.00" waitingCount="1" stopTime="0.00" timeLoss="56.89" rerouteNo="0" devices="tripinfo_69" vType="DEFAULT_VEHTYPE" speedFactor="0.82" vaporized=""/>
    <tripinfo id="386" depart="49.00" departLane="25_3way_140to3way_160_0" departPos="5.10" departSpeed="0.00" departDelay="0.75" arrival="126.00" arrivalLane="66_3way_280to4way_281_0" arrivalPos="85.60" arrivalSpeed="10.39" duration="77.00" routeLength="775.13" waitingTime="0.00" waitingCount="0" stopTime="0.00" timeLoss="8.18" rerouteNo="0" devices="tripinfo_386" vType="DEFAULT_VEHTYPE" speedFactor="0.82" vaporized=""/>
    <tripinfo id="649" depart="82.00" departLane="117_3way_395to3way_396_0" departPos="5.10" departSpeed="0.00" departDelay="0.87" arrival="126.00" arrivalLane="647_4way_378to4way_358_0" arrivalPos="85.60" arrivalSpeed="12.48" duration="44.00" routeLength="475.13" waitingTime="0.00" waitingCount="0" stopTime="0.00" timeLoss="6.32" rerouteNo="0" devices="tripinfo_649" vType="DEFAULT_VEHTYPE" speedFactor="0.92" vaporized=""/>
    <tripinfo id="217" depart="31.00" departLane="209_4way_126to4way_146_0" departPos="5.10" departSpeed="0.00" departDelay="3.87" arrival="130.00" arrivalLane="245_4way_147to4way_148_0" arrivalPos="85.60" arrivalSpeed="5.01" duration="99.00" routeLength="275.13" waitingTime="61.00" waitingCount="2" stopTime="0.00" timeLoss="80.72" rerouteNo="0" devices="tripinfo_217" vType="DEFAULT_VEHTYPE" speedFactor="1.12" vaporized=""/>
    <tripinfo id="232" depart="29.00" departLane="8_3way_80to3way_100_0" departPos="5.10" departSpeed="0.00" departDelay="0.00" arrival="130.00" arrivalLane="145_4way_101to4way_102_0" arrivalPos="85.60" arrivalSpeed="6.18" duration="101.00" routeLength="275.13" waitingTime="62.00" waitingCount="2" stopTime="0.00" timeLoss="81.67" rerouteNo="0" devices="tripinfo_232" vType="DEFAULT_VEHTYPE" speedFactor="1.06" vaporized=""/>
    <tripinfo id="397" depart="50.00" departLane="372_4way_217to4way_218_0" departPos="5.10" departSpeed="0.00" departDelay="0.37" arrival="130.00" arrivalLane="337_4way_218to4way_198_0" arrivalPos="85.60" arrivalSpeed="5.71" duration="80.00" routeLength="175.13" waitingTime="51.00" waitingCount="2" stopTime="0.00" timeLoss="67.10" rerouteNo="0" devices="tripinfo_397" vType="DEFAULT_VEHTYPE" speedFactor="1.05" vaporized=""/>
    <tripinfo id="585" depart="74.00" departLane="344_4way_205to4way_204_0" departPos="5.10" departSpeed="0.00" departDelay="0.87" arrival="130.00" arrivalLane="343_4way_203to4way_223_0" arrivalPos="85.60" arrivalSpeed="4.44" duration="56.00" routeLength="275.13" waitingTime="23.00" waitingCount="1" stopTime="0.00" timeLoss="32.42" rerouteNo="0" devices="tripinfo_585" vType="DEFAULT_VEHTYPE" speedFactor="0.88" vaporized=""/>
    <tripinfo id="596" depart="75.00" departLane="679_4way_65to4way_45_0" departPos="5.10" departSpeed="0.00" departDelay="0.50" arrival="130.00" arrivalLane="674_4way_44to4way_43_0" arrivalPos="85.60" arrivalSpeed="5.71" duration="55.00" routeLength="275.13" waitingTime="25.00" waitingCount="1" stopTime="0.00" timeLoss="36.62" rerouteNo="0" devices="tripinfo_596" vType="DEFAULT_VEHTYPE" speedFactor="1.12" vaporized=""/>
    <tripinfo id="906" depart="114.00" departLane="669_4way_58to4way_38_0" departPos="5.10" departSpeed="0.00" departDelay="0.75" arrival="130.00" arrivalLane="669_4way_58to4way_38_0" arrivalPos="85.60" arrivalSpeed="5.11" duration="16.00" routeLength="80.50" waitingTime="2.00" waitingCount="1" stopTime="0.00" timeLoss="9.78" rerouteNo="0" devices="tripinfo_906" vType="DEFAULT_VEHTYPE" speedFactor="0.95" vaporized=""/>
    <tripinfo id="956" depart="120.00" departLane="152_4way_103to4way_123_0" departPos="5.10" departSpeed="0.00" departDelay="0.50" arrival="130.00" arrivalLane="152_4way_103to4way_123_0" arrivalPos="85.60" arrivalSpeed="8.42" duration="10.00" routeLength="80.50" waitingTime="0.00" waitingCount="0" stopTime="0.00" timeLoss="3.74" rerouteNo="0" devices="tripinfo_956" vType="DEFAULT_VEHTYPE" speedFactor="0.94" vaporized=""/>
    <tripinfo id="663" depart="83.00" departLane="29_3way_179to3way_159_0" departPos="5.10" departSpeed="0.00" departDelay="0.12" arrival="132.00" arrivalLane="139_3way_79to4way_78_0" arrivalPos="85.60" arrivalSpeed="13.29" duration="49.00" routeLength="575.13" waitingTime="0.00" waitingCount="0" stopTime="0.00" timeLoss="6.92" rerouteNo="0" devices="tripinfo_663" vType="DEFAULT_VEHTYPE" speedFactor="1.01" vaporized=""/>
    <tripinfo id="891" depart="112.00" departLane="51_3way_239to3way_219_0" departPos="5.10" departSpeed="0.00" departDelay="0.62" arrival="132.00" arrivalLane="52_3way_219to4way_218_0" arrivalPos="85.60" arrivalSpeed="11.98" duration="20.00" routeLength="175.13" waitingTime="0.00" waitingCount="0" stopTime="0.00" timeLoss="4.84" rerouteNo="0" devices="tripinfo_891" vType="DEFAULT_VEHTYPE" speedFactor="0.90" vaporized=""/>
    <tripinfo id="47" depart="6.00" departLane="357_4way_21to4way_41_0" departPos="5.10" departSpeed="0.00" departDelay="0.12" arrival="133.00" arrivalLane="235_4way_142to4way_143_0" arrivalPos="85.60" arrivalSpeed="8.18" duration="127.00" routeLength="775.13" waitingTime="46.00" waitingCount="1" stopTime="0.00" timeLoss="63.62" rerouteNo="0" devices="tripinfo_47" vType="DEFAULT_VEHTYPE" speedFactor="0.90" vaporized=""/>
    <tripinfo id="780" depart="98.00" departLane="693_4way_72to4way_52_0" departPos="5.10" departSpeed="0.00" departDelay="0.50" arrival="134.00" arrivalLane="690_4way_52to4way_51_0" arrivalPos="85.60" arrivalSpeed="8.94" duration="36.00" routeLength="175.13" waitingTime="11.00" waitingCount="1" stopTime="0.00" timeLoss="19.81" rerouteNo="0" devices="tripinfo_780" vType="DEFAULT_VEHTYPE" speedFactor="0.82" vaporized=""/>
    <tripinfo id="973" depart="124.00" departLane="69_3way_4to3way_3_0" departPos="5.10" departSpeed="0.00" departDelay="2.37" arrival="134.00" arrivalLane="69_3way_4to3way_3_0" arrivalPos="85.60" arrivalSpeed="12.89" duration="10.00" routeLength="80.50" waitingTime="0.00" waitingCount="0" stopTime="0.00" timeLoss="3.05" rerouteNo="0" devices="tripinfo_973" vType="DEFAULT_VEHTYPE" speedFactor="0.93" vaporized=""/>
    <tripinfo id="210" depart="27.00" departLane="530_4way_318to4way_298_0" departPos="5.10" departSpeed="0.00" departDelay="0.75" arrival="136.00" arrivalLane="302_4way_198to4way_178_0" arrivalPos="85.60" arrivalSpeed="16.00" duration="109.00" routeLength="680.50" waitingTime="57.00" waitingCount="1" stopTime="0.00" timeLoss="67.97" rerouteNo="0" devices="tripinfo_210" vType="DEFAULT_VEHTYPE" speedFactor="1.20" vaporized=""/>
    <tripinfo id="887" depart="111.00" departLane="8_3way_100to3way_80_0" departPos="5.10" departSpeed="0.00" departDelay="0.12" arrival="136.00" arrivalLane="126_3way_60to3way_40_0" arrivalPos="85.60" arrivalSpeed="13.04" duration="25.00" routeLength="280.50" waitingTime="0.00" waitingCount="0" stopTime="0.00" timeLoss="3.66" rerouteNo="0" devices="tripinfo_887" vType="DEFAULT_VEHTYPE" speedFactor="0.96" vaporized=""/>
    <tripinfo id="127" depart="16.00" departLane="78_3way_339to4way_338_0" departPos="5.10" departSpeed="0.00" departDelay="0.12" arrival="137.00" arrivalLane="604_4way_337to4way_336_0" arrivalPos="85.60" arrivalSpeed="13.31" duration="121.00" routeLength="280.50" waitingTime="86.00" waitingCount="2" stopTime="0.00" timeLoss="100.26" rerouteNo="0" devices="tripinfo_127" vType="DEFAULT_VEHTYPE" speedFactor="1.00" vaporized=""/>
    <tripinfo id="189" depart="24.00" departLane="512_4way_30to4way_29_0" departPos="5.10" departSpeed="0.00" departDelay="0.37" arrival="137.00" arrivalLane="474_4way_27to4way_47_0" arrivalPos="85.60" arrivalSpeed="12.09" duration="113.00" routeLength="375.13" waitingTime="67.00" waitingCount="2" stopTime="0.00" timeLoss="82.90" rerouteNo="0" devices="tripinfo_189" vType="DEFAULT_VEHTYPE" speedFactor="0.92" vaporized=""/>
    <tripinfo id="197" depart="25.00" departLane="669_4way_58to4way_38_0" departPos="5.10" departSpeed="0.00" departDelay="0.37" arrival="137.00" arrivalLane="23_3way_15to3way_14_0" arrivalPos="85.60" arrivalSpeed="13.08" duration="112.00" routeLength="575.13" waitingTime="54.00" waitingCount="2" stopTime="0.00" timeLoss="69.76" rerouteNo="0" devices="tripinfo_197" vType="DEFAULT_VEHTYPE" speedFactor="1.01" vaporized=""/>
    <tripinfo id="258" depart="33.00" departLane="342_4way_204to4way_203_0" departPos="5.10" departSpeed="0.00" departDelay="0.75" arrival="137.00" arrivalLane="338_4way_202to4way_201_0" arrivalPos="85.60" arrivalSpeed="14.20" duration="104.00" routeLength="280.50" waitingTime="71.00" waitingCount="2" stopTime="0.00" timeLoss="85.01" rerouteNo="0" devices="tripinfo_258" vType="DEFAULT_VEHTYPE" speedFactor="1.12" vaporized=""/>
    <tripinfo id="262" depart="33.00" departLane="714_4way_85to4way_65_0" departPos="5.10" departSpeed="0.00" departDelay="0.25" arrival="137.00" arrivalLane="125_4way_24to3way_4_0" arrivalPos="85.60" arrivalSpeed="12.57" duration="104.00" routeLength="474.93" waitingTime="48.00" waitingCount="3" stopTime="0.00" timeLoss="65.97" rerouteNo="0" devices="tripinfo_262" vType="DEFAULT_VEHTYPE" speedFactor="0.93" vaporized=""/>