<?xml version="1.0" encoding="UTF-8"?>

<!-- generated on 2023-07-27 06:48:14 by Eclipse SUMO sumo Version 1.12.0
<configuration xmlns:xsi="http://www.w3.org/2001/XMLSchema-instance" xsi:noNamespaceSchemaLocation="http://sumo.dlr.de/xsd/sumoConfiguration.xsd">

    <input>
        <net-file value="../../data_generation/sq.net.xml"/>
        <route-files value="../../data_generation/sq.rou.xml"/>
    </input>

    <output>
        <tripinfo-output value="tripinfo.xml"/>
        <statistic-output value="statistic.xml"/>
    </output>

    <time>
        <begin value="0"/>
        <end value="3600"/>
    </time>

    <processing>
        <time-to-teleport value="-1"/>
    </processing>

    <traci_server>
        <remote-port value="58995"/>
    </traci_server>

    <random_number>
        <seed value="1395"/>
    </random_number>

    <gui_only>
        <gui-settings-file value="../../data_generation/view_HY_0402.xml"/>
    </gui_only>

</configuration>
-->

<tripinfos xmlns:xsi="http://www.w3.org/2001/XMLSchema-instance" xsi:noNamespaceSchemaLocation="http://sumo.dlr.de/xsd/tripinfo_file.xsd">
    <tripinfo id="1" depart="1.00" departLane="23_3way_5to4way_6_0" departPos="5.10" departSpeed="0.00" departDelay="0.50" arrival="11.00" arrivalLane="23_3way_5to4way_6_0" arrivalPos="85.60" arrivalSpeed="13.41" duration="10.00" routeLength="80.50" waitingTime="0.00" waitingCount="0" stopTime="0.00" timeLoss="3.58" rerouteNo="0" devices="tripinfo_1" vType="DEFAULT_VEHTYPE" speedFactor="1.04" vaporized=""/>
    <tripinfo id="16" depart="8.00" departLane="3_4way_6to3way_1_0" departPos="5.10" departSpeed="0.00" departDelay="0.00" arrival="19.00" arrivalLane="3_4way_6to3way_1_0" arrivalPos="85.60" arrivalSpeed="11.30" duration="11.00" routeLength="80.50" waitingTime="0.00" waitingCount="0" stopTime="0.00" timeLoss="3.69" rerouteNo="0" devices="tripinfo_16" vType="DEFAULT_VEHTYPE" speedFactor="0.90" vaporized=""/>
    <tripinfo id="21" depart="11.00" departLane="18_3way_22to3way_23_0" departPos="5.10" departSpeed="0.00" departDelay="0.50" arrival="21.00" arrivalLane="18_3way_22to3way_23_0" arrivalPos="85.60" arrivalSpeed="11.13" duration="10.00" routeLength="80.50" waitingTime="0.00" waitingCount="0" stopTime="0.00" timeLoss="2.51" rerouteNo="0" devices="tripinfo_21" vType="DEFAULT_VEHTYPE" speedFactor="0.82" vaporized=""/>
    <tripinfo id="24" depart="12.00" departLane="8_3way_9to3way_14_0" departPos="5.10" departSpeed="0.00" departDelay="0.00" arrival="22.00" arrivalLane="8_3way_9to3way_14_0" arrivalPos="85.60" arrivalSpeed="12.35" duration="10.00" routeLength="80.50" waitingTime="0.00" waitingCount="0" stopTime="0.00" timeLoss="3.15" rerouteNo="0" devices="tripinfo_24" vType="DEFAULT_VEHTYPE" speedFactor="0.97" vaporized=""/>
    <tripinfo id="15" depart="8.00" departLane="5_3way_5to3way_10_0" departPos="5.10" departSpeed="0.00" departDelay="0.50" arrival="24.00" arrivalLane="4_3way_10to3way_15_0" arrivalPos="85.60" arrivalSpeed="13.80" duration="16.00" routeLength="180.50" waitingTime="0.00" waitingCount="0" stopTime="0.00" timeLoss="3.44" rerouteNo="0" devices="tripinfo_15" vType="DEFAULT_VEHTYPE" speedFactor="1.05" vaporized=""/>
    <tripinfo id="22" depart="11.00" departLane="4_3way_15to3way_10_0" departPos="5.10" departSpeed="0.00" departDelay="0.00" arrival="28.00" arrivalLane="5_3way_10to3way_5_0" arrivalPos="85.60" arrivalSpeed="13.55" duration="17.00" routeLength="180.50" waitingTime="0.00" waitingCount="0" stopTime="0.00" timeLoss="3.19" rerouteNo="0" devices="tripinfo_22" vType="DEFAULT_VEHTYPE" speedFactor="1.00" vaporized=""/>
    <tripinfo id="27" depart="14.00" departLane="21_3way_3to3way_9_0" departPos="5.10" departSpeed="0.00" departDelay="0.50" arrival="31.00" arrivalLane="21_3way_3to3way_9_0" arrivalPos="188.80" arrivalSpeed="14.15" duration="17.00" routeLength="183.70" waitingTime="0.00" waitingCount="0" stopTime="0.00" timeLoss="3.29" rerouteNo="0" devices="tripinfo_27" vType="DEFAULT_VEHTYPE" speedFactor="1.03" vaporized=""/>
    <tripinfo id="45" depart="24.00" departLane="3_3way_1to4way_6_0" departPos="5.10" departSpeed="0.00" departDelay="1.50" arrival="34.00" arrivalLane="3_3way_1to4way_6_0" arrivalPos="85.60" arrivalSpeed="13.60" duration="10.00" routeLength="80.50" waitingTime="0.00" waitingCount="0" stopTime="0.00" timeLoss="3.40" rerouteNo="0" devices="tripinfo_45" vType="DEFAULT_VEHTYPE" speedFactor="1.00" vaporized=""/>
    <tripinfo id="34" depart="17.00" departLane="3_3way_1to4way_6_0" departPos="5.10" departSpeed="0.00" departDelay="0.00" arrival="37.00" arrivalLane="35_4way_6to4way_7_0" arrivalPos="85.60" arrivalSpeed="12.53" duration="20.00" routeLength="175.13" waitingTime="0.00" waitingCount="0" stopTime="0.00" timeLoss="5.23" rerouteNo="0" devices="tripinfo_34" vType="DEFAULT_VEHTYPE" speedFactor="0.96" vaporized=""/>
    <tripinfo id="7" depart="4.00" departLane="33_4way_17to4way_16_0" departPos="5.10" departSpeed="0.00" departDelay="0.50" arrival="40.00" arrivalLane="3_4way_6to3way_1_0" arrivalPos="85.60" arrivalSpeed="11.96" duration="36.00" routeLength="380.30" waitingTime="0.00" waitingCount="0" stopTime="0.00" timeLoss="6.22" rerouteNo="0" devices="tripinfo_7" vType="DEFAULT_VEHTYPE" speedFactor="0.95" vaporized=""/>
    <tripinfo id="32" depart="16.00" departLane="11_3way_15to4way_16_0" departPos="5.10" departSpeed="0.00" departDelay="0.00" arrival="41.00" arrivalLane="34_4way_17to4way_18_0" arrivalPos="85.60" arrivalSpeed="13.18" duration="25.00" routeLength="280.50" waitingTime="0.00" waitingCount="0" stopTime="0.00" timeLoss="4.36" rerouteNo="0" devices="tripinfo_32" vType="DEFAULT_VEHTYPE" speedFactor="1.00" vaporized=""/>
    <tripinfo id="63" depart="32.00" departLane="23_4way_6to3way_5_0" departPos="5.10" departSpeed="0.00" departDelay="0.50" arrival="41.00" arrivalLane="23_4way_6to3way_5_0" arrivalPos="85.60" arrivalSpeed="12.52" duration="9.00" routeLength="80.50" waitingTime="0.00" waitingCount="0" stopTime="0.00" timeLoss="2.86" rerouteNo="0" devices="tripinfo_63" vType="DEFAULT_VEHTYPE" speedFactor="0.95" vaporized=""/>
    <tripinfo id="64" depart="32.00" departLane="27_4way_11to4way_6_0" departPos="5.10" departSpeed="0.00" departDelay="0.00" arrival="42.00" arrivalLane="27_4way_11to4way_6_0" arrivalPos="85.60" arrivalSpeed="12.22" duration="10.00" routeLength="80.50" waitingTime="0.00" waitingCount="0" stopTime="0.00" timeLoss="3.18" rerouteNo="0" devices="tripinfo_64" vType="DEFAULT_VEHTYPE" speedFactor="0.96" vaporized=""/>
    <tripinfo id="50" depart="25.00" departLane="13_4way_18to3way_19_0" departPos="5.10" departSpeed="0.00" departDelay="0.00" arrival="44.00" arrivalLane="7_3way_19to3way_14_0" arrivalPos="85.60" arrivalSpeed="13.36" duration="19.00" routeLength="175.13" waitingTime="0.00" waitingCount="0" stopTime="0.00" timeLoss="5.30" rerouteNo="0" devices="tripinfo_50" vType="DEFAULT_VEHTYPE" speedFactor="1.01" vaporized=""/>
    <tripinfo id="71" depart="36.00" departLane="24_4way_8to3way_9_0" departPos="5.10" departSpeed="0.00" departDelay="0.50" arrival="45.00" arrivalLane="24_4way_8to3way_9_0" arrivalPos="85.60" arrivalSpeed="15.63" duration="9.00" routeLength="80.50" waitingTime="0.00" waitingCount="0" stopTime="0.00" timeLoss="3.83" rerouteNo="0" devices="tripinfo_71" vType="DEFAULT_VEHTYPE" speedFactor="1.13" vaporized=""/>
    <tripinfo id="51" depart="26.00" departLane="33_4way_17to4way_16_0" departPos="5.10" departSpeed="0.00" departDelay="0.50" arrival="47.00" arrivalLane="11_4way_16to3way_15_0" arrivalPos="85.60" arrivalSpeed="10.14" duration="21.00" routeLength="180.50" waitingTime="0.00" waitingCount="0" stopTime="0.00" timeLoss="3.16" rerouteNo="0" devices="tripinfo_51" vType="DEFAULT_VEHTYPE" speedFactor="0.74" vaporized=""/>
    <tripinfo id="76" depart="38.00" departLane="11_3way_15to4way_16_0" departPos="5.10" departSpeed="0.00" departDelay="0.00" arrival="48.00" arrivalLane="11_3way_15to4way_16_0" arrivalPos="85.60" arrivalSpeed="11.19" duration="10.00" routeLength="80.50" waitingTime="0.00" waitingCount="0" stopTime="0.00" timeLoss="3.13" rerouteNo="0" devices="tripinfo_76" vType="DEFAULT_VEHTYPE" speedFactor="0.90" vaporized=""/>
    <tripinfo id="26" depart="13.00" departLane="13_3way_19to4way_18_0" departPos="5.10" departSpeed="0.00" departDelay="0.00" arrival="49.00" arrivalLane="11_4way_16to3way_15_0" arrivalPos="85.60" arrivalSpeed="12.71" duration="36.00" routeLength="380.50" waitingTime="0.00" waitingCount="0" stopTime="0.00" timeLoss="8.93" rerouteNo="0" devices="tripinfo_26" vType="DEFAULT_VEHTYPE" speedFactor="1.03" vaporized=""/>
    <tripinfo id="28" depart="14.00" departLane="14_3way_3to3way_2_0" departPos="5.10" departSpeed="0.00" departDelay="0.00" arrival="49.00" arrivalLane="27_4way_6to4way_11_0" arrivalPos="85.60" arrivalSpeed="13.78" duration="35.00" routeLength="375.13" waitingTime="0.00" waitingCount="0" stopTime="0.00" timeLoss="7.49" rerouteNo="0" devices="tripinfo_28" vType="DEFAULT_VEHTYPE" speedFactor="1.03" vaporized=""/>
    <tripinfo id="40" depart="20.00" departLane="1_3way_2to3way_1_0" departPos="5.10" departSpeed="0.00" departDelay="0.00" arrival="51.00" arrivalLane="5_3way_5to3way_10_0" arrivalPos="85.60" arrivalSpeed="14.28" duration="31.00" routeLength="377.30" waitingTime="0.00" waitingCount="0" stopTime="0.00" timeLoss="5.06" rerouteNo="0" devices="tripinfo_40" vType="DEFAULT_VEHTYPE" speedFactor="1.08" vaporized=""/>
    <tripinfo id="47" depart="24.00" departLane="13_3way_19to4way_18_0" departPos="5.10" departSpeed="0.00" departDelay="0.50" arrival="51.00" arrivalLane="33_4way_17to4way_16_0" arrivalPos="85.60" arrivalSpeed="11.88" duration="27.00" routeLength="280.50" waitingTime="0.00" waitingCount="0" stopTime="0.00" timeLoss="4.12" rerouteNo="0" devices="tripinfo_47" vType="DEFAULT_VEHTYPE" speedFactor="0.90" vaporized=""/>
    <tripinfo id="68" depart="34.00" departLane="33_4way_16to4way_17_0" departPos="5.10" departSpeed="0.00" departDelay="0.00" arrival="52.00" arrivalLane="29_4way_17to4way_12_0" arrivalPos="85.60" arrivalSpeed="14.61" duration="18.00" routeLength="175.13" waitingTime="0.00" waitingCount="0" stopTime="0.00" timeLoss="5.43" rerouteNo="0" devices="tripinfo_68" vType="DEFAULT_VEHTYPE" speedFactor="1.09" vaporized=""/>
    <tripinfo id="38" depart="19.00" departLane="33_4way_16to4way_17_0" departPos="5.10" departSpeed="0.00" departDelay="0.00" arrival="53.00" arrivalLane="15_4way_7to3way_2_0" arrivalPos="85.60" arrivalSpeed="12.57" duration="34.00" routeLength="375.13" waitingTime="0.00" waitingCount="0" stopTime="0.00" timeLoss="5.81" rerouteNo="0" devices="tripinfo_38" vType="DEFAULT_VEHTYPE" speedFactor="1.00" vaporized=""/>
    <tripinfo id="65" depart="34.00" departLane="11_3way_15to4way_16_0" departPos="5.10" departSpeed="0.00" departDelay="1.50" arrival="53.00" arrivalLane="26_4way_16to4way_11_0" arrivalPos="85.60" arrivalSpeed="15.38" duration="19.00" routeLength="175.13" waitingTime="0.00" waitingCount="0" stopTime="0.00" timeLoss="6.72" rerouteNo="0" devices="tripinfo_65" vType="DEFAULT_VEHTYPE" speedFactor="1.20" vaporized=""/>
    <tripinfo id="69" depart="35.00" departLane="32_4way_13to4way_8_0" departPos="5.10" departSpeed="0.00" departDelay="0.50" arrival="54.00" arrivalLane="22_4way_8to3way_3_0" arrivalPos="85.60" arrivalSpeed="10.20" duration="19.00" routeLength="180.50" waitingTime="0.00" waitingCount="0" stopTime="0.00" timeLoss="3.09" rerouteNo="0" devices="tripinfo_69" vType="DEFAULT_VEHTYPE" speedFactor="0.82" vaporized=""/>
    <tripinfo id="78" depart="44.00" departLane="34_4way_17to4way_18_0" departPos="5.10" departSpeed="0.00" departDelay="5.00" arrival="54.00" arrivalLane="34_4way_17to4way_18_0" arrivalPos="85.60" arrivalSpeed="14.25" duration="10.00" routeLength="80.50" waitingTime="0.00" waitingCount="0" stopTime="0.00" timeLoss="3.61" rerouteNo="0" devices="tripinfo_78" vType="DEFAULT_VEHTYPE" speedFactor="1.03" vaporized=""/>
    <tripinfo id="89" depart="45.00" departLane="23_4way_6to3way_5_0" departPos="5.10" departSpeed="0.00" departDelay="0.50" arrival="55.00" arrivalLane="23_4way_6to3way_5_0" arrivalPos="85.60" arrivalSpeed="12.24" duration="10.00" routeLength="80.50" waitingTime="0.00" waitingCount="0" stopTime="0.00" timeLoss="2.98" rerouteNo="0" devices="tripinfo_89" vType="DEFAULT_VEHTYPE" speedFactor="0.93" vaporized=""/>
    <tripinfo id="94" depart="47.00" departLane="7_3way_19to3way_14_0" departPos="5.10" departSpeed="0.00" departDelay="0.00" arrival="56.00" arrivalLane="7_3way_19to3way_14_0" arrivalPos="85.60" arrivalSpeed="14.43" duration="9.00" routeLength="80.50" waitingTime="0.00" waitingCount="0" stopTime="0.00" timeLoss="3.59" rerouteNo="0" devices="tripinfo_94" vType="DEFAULT_VEHTYPE" speedFactor="1.08" vaporized=""/>
    <tripinfo id="70" depart="36.00" departLane="34_4way_18to4way_17_0" departPos="5.10" departSpeed="0.00" departDelay="1.00" arrival="57.00" arrivalLane="33_4way_17to4way_16_0" arrivalPos="85.60" arrivalSpeed="9.52" duration="21.00" routeLength="180.50" waitingTime="0.00" waitingCount="0" stopTime="0.00" timeLoss="3.31" rerouteNo="0" devices="tripinfo_70" vType="DEFAULT_VEHTYPE" speedFactor="0.75" vaporized=""/>
    <tripinfo id="61" depart="31.00" departLane="11_3way_15to4way_16_0" departPos="5.10" departSpeed="0.00" departDelay="0.50" arrival="58.00" arrivalLane="27_4way_11to4way_6_0" arrivalPos="85.60" arrivalSpeed="12.98" duration="27.00" routeLength="275.13" waitingTime="0.00" waitingCount="0" stopTime="0.00" timeLoss="6.24" rerouteNo="0" devices="tripinfo_61" vType="DEFAULT_VEHTYPE" speedFactor="1.01" vaporized=""/>
    <tripinfo id="98" depart="49.00" departLane="1_3way_2to3way_1_0" departPos="5.10" departSpeed="0.00" departDelay="0.00" arrival="59.00" arrivalLane="1_3way_2to3way_1_0" arrivalPos="85.60" arrivalSpeed="11.64" duration="10.00" routeLength="80.50" waitingTime="0.00" waitingCount="0" stopTime="0.00" timeLoss="2.93" rerouteNo="0" devices="tripinfo_98" vType="DEFAULT_VEHTYPE" speedFactor="0.88" vaporized=""/>
    <tripinfo id="99" depart="50.00" departLane="11_3way_15to4way_16_0" departPos="5.10" departSpeed="0.00" departDelay="0.50" arrival="59.00" arrivalLane="11_3way_15to4way_16_0" arrivalPos="85.60" arrivalSpeed="12.82" duration="9.00" routeLength="80.50" waitingTime="0.00" waitingCount="0" stopTime="0.00" timeLoss="2.77" rerouteNo="0" devices="tripinfo_99" vType="DEFAULT_VEHTYPE" speedFactor="0.97" vaporized=""/>
    <tripinfo id="116" depart="58.00" departLane="22_3way_3to4way_8_0" departPos="5.10" departSpeed="0.00" departDelay="0.00" arrival="68.00" arrivalLane="22_3way_3to4way_8_0" arrivalPos="85.60" arrivalSpeed="13.04" duration="10.00" routeLength="80.50" waitingTime="0.00" waitingCount="0" stopTime="0.00" timeLoss="3.20" rerouteNo="0" devices="tripinfo_116" vType="DEFAULT_VEHTYPE" speedFactor="0.99" vaporized=""/>
    <tripinfo id="39" depart="20.00" departLane="13_3way_19to4way_18_0" departPos="5.10" departSpeed="0.00" departDelay="0.50" arrival="69.00" arrivalLane="5_3way_10to3way_5_0" arrivalPos="85.60" arrivalSpeed="12.23" duration="49.00" routeLength="580.29" waitingTime="0.00" waitingCount="0" stopTime="0.00" timeLoss="8.26" rerouteNo="0" devices="tripinfo_39" vType="DEFAULT_VEHTYPE" speedFactor="1.05" vaporized=""/>
    <tripinfo id="17" depart="11.00" departLane="33_4way_16to4way_17_0" departPos="5.10" departSpeed="0.00" departDelay="2.50" arrival="70.00" arrivalLane="31_4way_18to4way_13_0" arrivalPos="85.60" arrivalSpeed="5.55" duration="59.00" routeLength="275.13" waitingTime="27.00" waitingCount="1" stopTime="0.00" timeLoss="39.28" rerouteNo="0" devices="tripinfo_17" vType="DEFAULT_VEHTYPE" speedFactor="1.04" vaporized=""/>
    <tripinfo id="30" depart="17.00" departLane="14_3way_3to3way_2_0" departPos="5.10" departSpeed="0.00" departDelay="2.00" arrival="70.00" arrivalLane="29_4way_12to4way_17_0" arrivalPos="85.60" arrivalSpeed="4.64" duration="53.00" routeLength="375.13" waitingTime="16.00" waitingCount="1" stopTime="0.00" timeLoss="26.63" rerouteNo="0" devices="tripinfo_30" vType="DEFAULT_VEHTYPE" speedFactor="1.05" vaporized=""/>
    <tripinfo id="35" depart="18.00" departLane="21_3way_3to3way_9_0" departPos="5.10" departSpeed="0.00" departDelay="0.50" arrival="70.00" arrivalLane="7_3way_14to3way_19_0" arrivalPos="85.60" arrivalSpeed="5.64" duration="52.00" routeLength="383.70" waitingTime="13.00" waitingCount="1" stopTime="0.00" timeLoss="22.64" rerouteNo="0" devices="tripinfo_35" vType="DEFAULT_VEHTYPE" speedFactor="0.94" vaporized=""/>
    <tripinfo id="101" depart="51.00" departLane="9_3way_14to4way_13_0" departPos="5.10" departSpeed="0.00" departDelay="0.50" arrival="70.00" arrivalLane="31_4way_13to4way_18_0" arrivalPos="85.60" arrivalSpeed="13.33" duration="19.00" routeLength="175.13" waitingTime="0.00" waitingCount="0" stopTime="0.00" timeLoss="5.47" rerouteNo="0" devices="tripinfo_101" vType="DEFAULT_VEHTYPE" speedFactor="1.03" vaporized=""/>
    <tripinfo id="124" depart="62.00" departLane="23_4way_6to3way_5_0" departPos="5.10" departSpeed="0.00" departDelay="0.00" arrival="71.00" arrivalLane="23_4way_6to3way_5_0" arrivalPos="85.60" arrivalSpeed="15.31" duration="9.00" routeLength="80.50" waitingTime="0.00" waitingCount="0" stopTime="0.00" timeLoss="3.36" rerouteNo="0" devices="tripinfo_124" vType="DEFAULT_VEHTYPE" speedFactor="1.11" vaporized=""/>
    <tripinfo id="81" depart="41.00" departLane="1_3way_2to3way_1_0" departPos="5.10" departSpeed="0.00" departDelay="0.50" arrival="72.00" arrivalLane="5_3way_5to3way_10_0" arrivalPos="85.60" arrivalSpeed="13.40" duration="31.00" routeLength="377.30" waitingTime="0.00" waitingCount="0" stopTime="0.00" timeLoss="4.18" rerouteNo="0" devices="tripinfo_81" vType="DEFAULT_VEHTYPE" speedFactor="1.05" vaporized=""/>
    <tripinfo id="31" depart="20.00" departLane="14_3way_3to3way_2_0" departPos="5.10" departSpeed="0.00" departDelay="4.50" arrival="73.00" arrivalLane="29_4way_12to4way_17_0" arrivalPos="85.60" arrivalSpeed="7.57" duration="53.00" routeLength="375.13" waitingTime="15.00" waitingCount="1" stopTime="0.00" timeLoss="27.90" rerouteNo="0" devices="tripinfo_31" vType="DEFAULT_VEHTYPE" speedFactor="1.11" vaporized=""/>
    <tripinfo id="83" depart="42.00" departLane="9_3way_14to4way_13_0" departPos="5.10" departSpeed="0.00" departDelay="0.50" arrival="73.00" arrivalLane="28_4way_13to4way_12_0" arrivalPos="85.60" arrivalSpeed="8.96" duration="31.00" routeLength="180.50" waitingTime="9.00" waitingCount="1" stopTime="0.00" timeLoss="16.37" rerouteNo="0" devices="tripinfo_83" vType="DEFAULT_VEHTYPE" speedFactor="0.93" vaporized=""/>
    <tripinfo id="111" depart="56.00" departLane="7_3way_14to3way_19_0" departPos="5.10" departSpeed="0.00" departDelay="0.50" arrival="74.00" arrivalLane="7_3way_14to3way_19_0" arrivalPos="85.60" arrivalSpeed="9.36" duration="18.00" routeLength="80.50" waitingTime="2.00" waitingCount="1" stopTime="0.00" timeLoss="11.00" rerouteNo="0" devices="tripinfo_111" vType="DEFAULT_VEHTYPE" speedFactor="0.84" vaporized=""/>
    <tripinfo id="0" depart="0.00" departLane="35_4way_7to4way_6_0" departPos="5.10" departSpeed="0.00" departDelay="0.00" arrival="77.00" arrivalLane="23_4way_6to3way_5_0" arrivalPos="85.60" arrivalSpeed="13.83" duration="77.00" routeLength="180.50" waitingTime="55.00" waitingCount="1" stopTime="0.00" timeLoss="63.55" rerouteNo="0" devices="tripinfo_0" vType="DEFAULT_VEHTYPE" speedFactor="1.00" vaporized=""/>
    <tripinfo id="2" depart="1.00" departLane="26_4way_11to4way_16_0" departPos="5.10" departSpeed="0.00" departDelay="0.00" arrival="77.00" arrivalLane="17_4way_16to3way_21_0" arrivalPos="85.60" arrivalSpeed="13.30" duration="76.00" routeLength="180.50" waitingTime="53.00" waitingCount="1" stopTime="0.00" timeLoss="63.09" rerouteNo="0" devices="tripinfo_2" vType="DEFAULT_VEHTYPE" speedFactor="1.04" vaporized=""/>
    <tripinfo id="5" depart="3.00" departLane="5_3way_5to3way_10_0" departPos="5.10" departSpeed="0.00" departDelay="0.50" arrival="77.00" arrivalLane="25_4way_11to4way_12_0" arrivalPos="85.60" arrivalSpeed="12.39" duration="74.00" routeLength="275.13" waitingTime="43.00" waitingCount="1" stopTime="0.00" timeLoss="51.71" rerouteNo="0" devices="tripinfo_5" vType="DEFAULT_VEHTYPE" speedFactor="0.94" vaporized=""/>
    <tripinfo id="9" depart="5.00" departLane="29_4way_12to4way_17_0" departPos="5.10" departSpeed="0.00" departDelay="0.50" arrival="77.00" arrivalLane="34_4way_17to4way_18_0" arrivalPos="85.60" arrivalSpeed="11.86" duration="72.00" routeLength="175.13" waitingTime="49.00" waitingCount="1" stopTime="0.00" timeLoss="57.48" rerouteNo="0" devices="tripinfo_9" vType="DEFAULT_VEHTYPE" speedFactor="0.91" vaporized=""/>
    <tripinfo id="13" depart="7.00" departLane="10_3way_21to3way_15_0" departPos="5.10" departSpeed="0.00" departDelay="0.50" arrival="77.00" arrivalLane="4_3way_15to3way_10_0" arrivalPos="85.60" arrivalSpeed="12.83" duration="70.00" routeLength="283.70" waitingTime="40.00" waitingCount="1" stopTime="0.00" timeLoss="48.56" rerouteNo="0" devices="tripinfo_13" vType="DEFAULT_VEHTYPE" speedFactor="0.98" vaporized=""/>
    <tripinfo id="25" depart="13.00" departLane="7_3way_19to3way_14_0" departPos="5.10" departSpeed="0.00" departDelay="0.50" arrival="77.00" arrivalLane="25_4way_12to4way_11_0" arrivalPos="85.60" arrivalSpeed="12.36" duration="64.00" routeLength="375.13" waitingTime="25.00" waitingCount="1" stopTime="0.00" timeLoss="34.83" rerouteNo="0" devices="tripinfo_25" vType="DEFAULT_VEHTYPE" speedFactor="0.95" vaporized=""/>
    <tripinfo id="29" depart="15.00" departLane="18_3way_22to3way_23_0" departPos="5.10" departSpeed="0.00" departDelay="0.50" arrival="77.00" arrivalLane="7_3way_19to3way_14_0" arrivalPos="85.60" arrivalSpeed="12.79" duration="62.00" routeLength="377.30" waitingTime="23.00" waitingCount="1" stopTime="0.00" timeLoss="32.67" rerouteNo="0" devices="tripinfo_29" vType="DEFAULT_VEHTYPE" speedFactor="0.95" vaporized=""/>
    <tripinfo id="54" depart="34.00" departLane="35_4way_6to4way_7_0" departPos="5.10" departSpeed="0.00" departDelay="7.00" arrival="77.00" arrivalLane="36_4way_7to4way_8_0" arrivalPos="85.60" arrivalSpeed="14.66" duration="43.00" routeLength="180.50" waitingTime="22.00" waitingCount="1" stopTime="0.00" timeLoss="30.27" rerouteNo="0" devices="tripinfo_54" vType="DEFAULT_VEHTYPE" speedFactor="1.07" vaporized=""/>
    <tripinfo id="43" depart="22.00" departLane="36_4way_7to4way_8_0" departPos="5.10" departSpeed="0.00" departDelay="0.50" arrival="78.00" arrivalLane="22_4way_8to3way_3_0" arrivalPos="85.60" arrivalSpeed="12.59" duration="56.00" routeLength="175.13" waitingTime="33.00" waitingCount="1" stopTime="0.00" timeLoss="41.55" rerouteNo="0" devices="tripinfo_43" vType="DEFAULT_VEHTYPE" speedFactor="0.97" vaporized=""/>
    <tripinfo id="137" depart="69.00" departLane="3_3way_1to4way_6_0" departPos="5.10" departSpeed="0.00" departDelay="0.50" arrival="78.00" arrivalLane="3_3way_1to4way_6_0" arrivalPos="85.60" arrivalSpeed="15.50" duration="9.00" routeLength="80.50" waitingTime="0.00" waitingCount="0" stopTime="0.00" timeLoss="3.51" rerouteNo="0" devices="tripinfo_137" vType="DEFAULT_VEHTYPE" speedFactor="1.14" vaporized=""/>
    <tripinfo id="19" depart="10.00" departLane="1_3way_2to3way_1_0" departPos="5.10" departSpeed="0.00" departDelay="0.50" arrival="80.00" arrivalLane="26_4way_11to4way_16_0" arrivalPos="85.60" arrivalSpeed="9.33" duration="70.00" routeLength="375.13" waitingTime="23.00" waitingCount="1" stopTime="0.00" timeLoss="38.80" rerouteNo="0" devices="tripinfo_19" vType="DEFAULT_VEHTYPE" speedFactor="0.89" vaporized=""/>
    <tripinfo id="23" depart="13.00" departLane="22_3way_3to4way_8_0" departPos="5.10" departSpeed="0.00" departDelay="1.50" arrival="80.00" arrivalLane="31_4way_13to4way_18_0" arrivalPos="85.60" arrivalSpeed="11.65" duration="67.00" routeLength="280.50" waitingTime="33.00" waitingCount="1" stopTime="0.00" timeLoss="43.68" rerouteNo="0" devices="tripinfo_23" vType="DEFAULT_VEHTYPE" speedFactor="0.87" vaporized=""/>
    <tripinfo id="53" depart="27.00" departLane="16_3way_21to3way_22_0" departPos="5.10" departSpeed="0.00" departDelay="0.50" arrival="80.00" arrivalLane="19_3way_22to4way_17_0" arrivalPos="85.60" arrivalSpeed="17.03" duration="53.00" routeLength="175.13" waitingTime="31.00" waitingCount="1" stopTime="0.00" timeLoss="42.37" rerouteNo="0" devices="tripinfo_53" vType="DEFAULT_VEHTYPE" speedFactor="1.27" vaporized=""/>
    <tripinfo id="77" depart="39.00" departLane="36_4way_8to4way_7_0" departPos="5.10" departSpeed="0.00" departDelay="0.50" arrival="80.00" arrivalLane="36_4way_8to4way_7_0" arrivalPos="85.60" arrivalSpeed="6.94" duration="41.00" routeLength="80.50" waitingTime="23.00" waitingCount="1" stopTime="0.00" timeLoss="35.01" rerouteNo="0" devices="tripinfo_77" vType="DEFAULT_VEHTYPE" speedFactor="0.99" vaporized=""/>
    <tripinfo id="112" depart="56.00" departLane="2_3way_1to3way_5_0" departPos="5.10" departSpeed="0.00" departDelay="0.00" arrival="81.00" arrivalLane="5_3way_5to3way_10_0" arrivalPos="85.60" arrivalSpeed="12.81" duration="25.00" routeLength="277.30" waitingTime="0.00" waitingCount="0" stopTime="0.00" timeLoss="3.86" rerouteNo="0" devices="tripinfo_112" vType="DEFAULT_VEHTYPE" speedFactor="0.95" vaporized=""/>
    <tripinfo id="125" depart="63.00" departLane="20_3way_23to4way_18_0" departPos="5.10" departSpeed="0.00" departDelay="0.50" arrival="81.00" arrivalLane="20_3way_23to4way_18_0" arrivalPos="85.60" arrivalSpeed="11.93" duration="18.00" routeLength="80.50" waitingTime="1.00" waitingCount="1" stopTime="0.00" timeLoss="11.57" rerouteNo="0" devices="tripinfo_125" vType="DEFAULT_VEHTYPE" speedFactor="0.95" vaporized=""/>
    <tripinfo id="144" depart="72.00" departLane="22_4way_8to3way_3_0" departPos="5.10" departSpeed="0.00" departDelay="0.00" arrival="81.00" arrivalLane="22_4way_8to3way_3_0" arrivalPos="85.60" arrivalSpeed="13.97" duration="9.00" routeLength="80.50" waitingTime="0.00" waitingCount="0" stopTime="0.00" timeLoss="3.33" rerouteNo="0" devices="tripinfo_144" vType="DEFAULT_VEHTYPE" speedFactor="1.07" vaporized=""/>
    <tripinfo id="41" depart="21.00" departLane="32_4way_13to4way_8_0" departPos="5.10" departSpeed="0.00" departDelay="0.50" arrival="82.00" arrivalLane="35_4way_7to4way_6_0" arrivalPos="85.60" arrivalSpeed="15.26" duration="61.00" routeLength="275.13" waitingTime="29.00" waitingCount="1" stopTime="0.00" timeLoss="42.92" rerouteNo="0" devices="tripinfo_41" vType="DEFAULT_VEHTYPE" speedFactor="1.12" vaporized=""/>
    <tripinfo id="74" depart="37.00" departLane="5_3way_5to3way_10_0" departPos="5.10" departSpeed="0.00" departDelay="0.00" arrival="82.00" arrivalLane="25_4way_11to4way_12_0" arrivalPos="85.60" arrivalSpeed="11.11" duration="45.00" routeLength="275.13" waitingTime="10.00" waitingCount="1" stopTime="0.00" timeLoss="19.64" rerouteNo="0" devices="tripinfo_74" vType="DEFAULT_VEHTYPE" speedFactor="0.81" vaporized=""/>
    <tripinfo id="85" depart="43.00" departLane="3_3way_1to4way_6_0" departPos="5.10" departSpeed="0.00" departDelay="0.50" arrival="84.00" arrivalLane="26_4way_11to4way_16_0" arrivalPos="85.60" arrivalSpeed="9.43" duration="41.00" routeLength="280.50" waitingTime="10.00" waitingCount="1" stopTime="0.00" timeLoss="22.93" rerouteNo="0" devices="tripinfo_85" vType="DEFAULT_VEHTYPE" speedFactor="1.12" vaporized=""/>
    <tripinfo id="148" depart="74.00" departLane="14_3way_2to3way_3_0" departPos="5.10" departSpeed="0.00" departDelay="0.00" arrival="84.00" arrivalLane="14_3way_2to3way_3_0" arrivalPos="85.60" arrivalSpeed="13.58" duration="10.00" routeLength="80.50" waitingTime="0.00" waitingCount="0" stopTime="0.00" timeLoss="3.99" rerouteNo="0" devices="tripinfo_148" vType="DEFAULT_VEHTYPE" speedFactor="1.07" vaporized=""/>
    <tripinfo id="18" depart="9.00" departLane="10_3way_15to3way_21_0" departPos="5.10" departSpeed="0.00" departDelay="0.00" arrival="85.00" arrivalLane="16_3way_21to3way_22_0" arrivalPos="85.60" arrivalSpeed="9.25" duration="76.00" routeLength="277.30" waitingTime="38.00" waitingCount="1" stopTime="0.00" timeLoss="54.83" rerouteNo="0" devices="tripinfo_18" vType="DEFAULT_VEHTYPE" speedFactor="0.96" vaporized=""/>
    <tripinfo id="72" depart="37.00" departLane="35_4way_6to4way_7_0" departPos="5.10" departSpeed="0.00" departDelay="1.00" arrival="85.00" arrivalLane="24_4way_8to3way_9_0" arrivalPos="85.60" arrivalSpeed="15.56" duration="48.00" routeLength="280.50" waitingTime="19.00" waitingCount="1" stopTime="0.00" timeLoss="30.04" rerouteNo="0" devices="tripinfo_72" vType="DEFAULT_VEHTYPE" speedFactor="1.15" vaporized=""/>
    <tripinfo id="58" depart="29.00" departLane="27_4way_6to4way_11_0" departPos="5.10" departSpeed="0.00" departDelay="0.00" arrival="86.00" arrivalLane="17_4way_16to3way_21_0" arrivalPos="85.60" arrivalSpeed="12.53" duration="57.00" routeLength="280.50" waitingTime="24.00" waitingCount="1" stopTime="0.00" timeLoss="35.35" rerouteNo="0" devices="tripinfo_58" vType="DEFAULT_VEHTYPE" speedFactor="0.93" vaporized=""/>
    <tripinfo id="128" depart="64.00" departLane="25_4way_12to4way_11_0" departPos="5.10" departSpeed="0.00" departDelay="0.00" arrival="86.00" arrivalLane="26_4way_11to4way_16_0" arrivalPos="85.60" arrivalSpeed="10.73" duration="22.00" routeLength="175.13" waitingTime="0.00" waitingCount="0" stopTime="0.00" timeLoss="8.56" rerouteNo="0" devices="tripinfo_128" vType="DEFAULT_VEHTYPE" speedFactor="1.02" vaporized=""/>
    <tripinfo id="114" depart="57.00" departLane="10_3way_15to3way_21_0" departPos="5.10" departSpeed="0.00" departDelay="0.00" arrival="87.00" arrivalLane="16_3way_21to3way_22_0" arrivalPos="85.60" arrivalSpeed="10.53" duration="30.00" routeLength="277.30" waitingTime="0.00" waitingCount="0" stopTime="0.00" timeLoss="10.85" rerouteNo="0" devices="tripinfo_114" vType="DEFAULT_VEHTYPE" speedFactor="1.06" vaporized=""/>