<?xml version="1.0" encoding="UTF-8"?>

<!-- generated on 2023-07-15 14:17:09 by Eclipse SUMO sumo Version 1.12.0
<configuration xmlns:xsi="http://www.w3.org/2001/XMLSchema-instance" xsi:noNamespaceSchemaLocation="http://sumo.dlr.de/xsd/sumoConfiguration.xsd">

    <input>
        <net-file value="../../data_generation/sapporo_HY.net.xml"/>
        <route-files value="../../data_generation/sapporo_HY.rou.xml"/>
    </input>

    <output>
        <tripinfo-output value="tripinfo.xml"/>
        <statistic-output value="statistic.xml"/>
    </output>

    <time>
        <begin value="0"/>
        <end value="3600"/>
    </time>

    <processing>
        <time-to-teleport value="-1"/>
    </processing>

    <traci_server>
        <remote-port value="55743"/>
    </traci_server>

    <random_number>
        <seed value="1395"/>
    </random_number>

    <gui_only>
        <gui-settings-file value="../../data_generation/view_HY_0402.xml"/>
    </gui_only>

</configuration>
-->

<tripinfos xmlns:xsi="http://www.w3.org/2001/XMLSchema-instance" xsi:noNamespaceSchemaLocation="http://sumo.dlr.de/xsd/tripinfo_file.xsd">
    <tripinfo id="7" depart="3.00" departLane="12_3way_B10to3way_A09_0" departPos="5.10" departSpeed="0.00" departDelay="0.83" arrival="21.00" arrivalLane="12_3way_B10to3way_A09_0" arrivalPos="182.40" arrivalSpeed="12.28" duration="18.00" routeLength="177.30" waitingTime="0.00" waitingCount="0" stopTime="0.00" timeLoss="4.37" rerouteNo="0" devices="tripinfo_7" vType="DEFAULT_VEHTYPE" speedFactor="0.95" vaporized=""/>
    <tripinfo id="16" depart="5.00" departLane="32_3way_D05to4way_D04_0" departPos="5.10" departSpeed="0.00" departDelay="0.04" arrival="26.00" arrivalLane="23_4way_D04to3way_C04_0" arrivalPos="85.60" arrivalSpeed="11.58" duration="21.00" routeLength="180.30" waitingTime="0.00" waitingCount="0" stopTime="0.00" timeLoss="4.74" rerouteNo="0" devices="tripinfo_16" vType="DEFAULT_VEHTYPE" speedFactor="0.90" vaporized=""/>
    <tripinfo id="19" depart="6.00" departLane="20_3way_C03to3way_C04_0" departPos="5.10" departSpeed="0.00" departDelay="0.11" arrival="26.00" arrivalLane="22_3way_C04to4way_B04_0" arrivalPos="85.60" arrivalSpeed="12.22" duration="20.00" routeLength="175.13" waitingTime="0.00" waitingCount="0" stopTime="0.00" timeLoss="4.42" rerouteNo="0" devices="tripinfo_19" vType="DEFAULT_VEHTYPE" speedFactor="0.89" vaporized=""/>
    <tripinfo id="51" depart="16.00" departLane="83_4way_D06to4way_D07_0" departPos="5.10" departSpeed="0.00" departDelay="0.19" arrival="27.00" arrivalLane="83_4way_D06to4way_D07_0" arrivalPos="85.60" arrivalSpeed="9.44" duration="11.00" routeLength="80.50" waitingTime="0.00" waitingCount="0" stopTime="0.00" timeLoss="2.66" rerouteNo="0" devices="tripinfo_51" vType="DEFAULT_VEHTYPE" speedFactor="0.74" vaporized=""/>
    <tripinfo id="65" depart="21.00" departLane="83_4way_D07to4way_D06_0" departPos="5.10" departSpeed="0.00" departDelay="0.85" arrival="30.00" arrivalLane="83_4way_D07to4way_D06_0" arrivalPos="85.60" arrivalSpeed="15.63" duration="9.00" routeLength="80.50" waitingTime="0.00" waitingCount="0" stopTime="0.00" timeLoss="3.81" rerouteNo="0" devices="tripinfo_65" vType="DEFAULT_VEHTYPE" speedFactor="1.20" vaporized=""/>
    <tripinfo id="73" depart="23.00" departLane="47_4way_F09to3way_F10_0" departPos="5.10" departSpeed="0.00" departDelay="0.37" arrival="32.00" arrivalLane="47_4way_F09to3way_F10_0" arrivalPos="85.60" arrivalSpeed="13.54" duration="9.00" routeLength="80.50" waitingTime="0.00" waitingCount="0" stopTime="0.00" timeLoss="2.96" rerouteNo="0" devices="tripinfo_73" vType="DEFAULT_VEHTYPE" speedFactor="0.98" vaporized=""/>
    <tripinfo id="0" depart="0.00" departLane="97_4way_E07to4way_E06_0" departPos="5.10" departSpeed="0.00" departDelay="0.00" arrival="34.00" arrivalLane="82_4way_E04to4way_D04_0" arrivalPos="85.60" arrivalSpeed="12.85" duration="34.00" routeLength="380.30" waitingTime="0.00" waitingCount="0" stopTime="0.00" timeLoss="5.78" rerouteNo="0" devices="tripinfo_0" vType="DEFAULT_VEHTYPE" speedFactor="1.00" vaporized=""/>
    <tripinfo id="77" depart="24.00" departLane="11_3way_A08to4way_B08_0" departPos="5.10" departSpeed="0.00" departDelay="0.13" arrival="34.00" arrivalLane="11_3way_A08to4way_B08_0" arrivalPos="85.60" arrivalSpeed="12.87" duration="10.00" routeLength="80.50" waitingTime="0.00" waitingCount="0" stopTime="0.00" timeLoss="3.22" rerouteNo="0" devices="tripinfo_77" vType="DEFAULT_VEHTYPE" speedFactor="0.99" vaporized=""/>
    <tripinfo id="80" depart="25.00" departLane="119_4way_F08to4way_G08_0" departPos="5.10" departSpeed="0.00" departDelay="0.20" arrival="36.00" arrivalLane="119_4way_F08to4way_G08_0" arrivalPos="85.60" arrivalSpeed="9.90" duration="11.00" routeLength="80.50" waitingTime="0.00" waitingCount="0" stopTime="0.00" timeLoss="3.17" rerouteNo="0" devices="tripinfo_80" vType="DEFAULT_VEHTYPE" speedFactor="0.78" vaporized=""/>
    <tripinfo id="81" depart="26.00" departLane="3_4way_B04to3way_A04_0" departPos="5.10" departSpeed="0.00" departDelay="0.89" arrival="36.00" arrivalLane="3_4way_B04to3way_A04_0" arrivalPos="85.60" arrivalSpeed="13.65" duration="10.00" routeLength="80.50" waitingTime="0.00" waitingCount="0" stopTime="0.00" timeLoss="3.66" rerouteNo="0" devices="tripinfo_81" vType="DEFAULT_VEHTYPE" speedFactor="1.05" vaporized=""/>
    <tripinfo id="52" depart="17.00" departLane="125_4way_G06to4way_G05_0" departPos="5.10" departSpeed="0.00" departDelay="0.88" arrival="37.00" arrivalLane="61_4way_G05to3way_H05_0" arrivalPos="85.60" arrivalSpeed="13.92" duration="20.00" routeLength="175.13" waitingTime="0.00" waitingCount="0" stopTime="0.00" timeLoss="6.48" rerouteNo="0" devices="tripinfo_52" vType="DEFAULT_VEHTYPE" speedFactor="1.03" vaporized=""/>
    <tripinfo id="44" depart="14.00" departLane="99_4way_E07to4way_E08_0" departPos="5.10" departSpeed="0.00" departDelay="0.36" arrival="44.00" arrivalLane="43_4way_E09to3way_E10_0" arrivalPos="85.60" arrivalSpeed="9.68" duration="30.00" routeLength="280.50" waitingTime="0.00" waitingCount="0" stopTime="0.00" timeLoss="3.61" rerouteNo="0" devices="tripinfo_44" vType="DEFAULT_VEHTYPE" speedFactor="0.78" vaporized=""/>
    <tripinfo id="13" depart="5.00" departLane="126_4way_G06to4way_G07_0" departPos="5.10" departSpeed="0.00" departDelay="0.97" arrival="48.00" arrivalLane="46_3way_G10to3way_F10_0" arrivalPos="85.60" arrivalSpeed="13.17" duration="43.00" routeLength="475.13" waitingTime="0.00" waitingCount="0" stopTime="0.00" timeLoss="6.58" rerouteNo="0" devices="tripinfo_13" vType="DEFAULT_VEHTYPE" speedFactor="0.98" vaporized=""/>
    <tripinfo id="9" depart="3.00" departLane="118_4way_F09to4way_F08_0" departPos="5.10" departSpeed="0.00" departDelay="0.21" arrival="55.00" arrivalLane="108_4way_F04to4way_F03_0" arrivalPos="85.60" arrivalSpeed="11.62" duration="52.00" routeLength="580.50" waitingTime="0.00" waitingCount="0" stopTime="0.00" timeLoss="5.07" rerouteNo="0" devices="tripinfo_9" vType="DEFAULT_VEHTYPE" speedFactor="0.91" vaporized=""/>
    <tripinfo id="147" depart="47.00" departLane="127_4way_G07to4way_G08_0" departPos="5.10" departSpeed="0.00" departDelay="1.43" arrival="57.00" arrivalLane="127_4way_G07to4way_G08_0" arrivalPos="85.60" arrivalSpeed="12.32" duration="10.00" routeLength="80.50" waitingTime="0.00" waitingCount="0" stopTime="0.00" timeLoss="3.37" rerouteNo="0" devices="tripinfo_147" vType="DEFAULT_VEHTYPE" speedFactor="0.97" vaporized=""/>
    <tripinfo id="157" depart="49.00" departLane="102_4way_E08to4way_F08_0" departPos="5.10" departSpeed="0.00" departDelay="0.33" arrival="59.00" arrivalLane="102_4way_E08to4way_F08_0" arrivalPos="85.60" arrivalSpeed="12.13" duration="10.00" routeLength="80.50" waitingTime="0.00" waitingCount="0" stopTime="0.00" timeLoss="3.45" rerouteNo="0" devices="tripinfo_157" vType="DEFAULT_VEHTYPE" speedFactor="0.94" vaporized=""/>
    <tripinfo id="66" depart="21.00" departLane="91_4way_E03to4way_E04_0" departPos="5.10" departSpeed="0.00" departDelay="0.54" arrival="60.00" arrivalLane="84_4way_E06to4way_D06_0" arrivalPos="85.60" arrivalSpeed="10.88" duration="39.00" routeLength="375.13" waitingTime="0.00" waitingCount="0" stopTime="0.00" timeLoss="5.73" rerouteNo="0" devices="tripinfo_66" vType="DEFAULT_VEHTYPE" speedFactor="0.86" vaporized=""/>
    <tripinfo id="130" depart="41.00" departLane="108_4way_F03to4way_F04_0" departPos="5.10" departSpeed="0.00" departDelay="0.70" arrival="60.00" arrivalLane="94_4way_F04to4way_E04_0" arrivalPos="85.60" arrivalSpeed="12.45" duration="19.00" routeLength="175.13" waitingTime="0.00" waitingCount="0" stopTime="0.00" timeLoss="5.09" rerouteNo="0" devices="tripinfo_130" vType="DEFAULT_VEHTYPE" speedFactor="0.98" vaporized=""/>
    <tripinfo id="161" depart="50.00" departLane="95_4way_E06to4way_E05_0" departPos="5.10" departSpeed="0.00" departDelay="0.09" arrival="60.00" arrivalLane="95_4way_E06to4way_E05_0" arrivalPos="85.60" arrivalSpeed="12.54" duration="10.00" routeLength="80.50" waitingTime="0.00" waitingCount="0" stopTime="0.00" timeLoss="3.38" rerouteNo="0" devices="tripinfo_161" vType="DEFAULT_VEHTYPE" speedFactor="0.95" vaporized=""/>
    <tripinfo id="165" depart="52.00" departLane="106_4way_F02to4way_F03_0" departPos="5.10" departSpeed="0.00" departDelay="0.85" arrival="62.00" arrivalLane="106_4way_F02to4way_F03_0" arrivalPos="85.60" arrivalSpeed="14.68" duration="10.00" routeLength="80.50" waitingTime="0.00" waitingCount="0" stopTime="0.00" timeLoss="3.74" rerouteNo="0" devices="tripinfo_165" vType="DEFAULT_VEHTYPE" speedFactor="1.07" vaporized=""/>
    <tripinfo id="174" depart="54.00" departLane="74_4way_C09to4way_B09_0" departPos="5.10" departSpeed="0.00" departDelay="0.06" arrival="64.00" arrivalLane="74_4way_C09to4way_B09_0" arrivalPos="85.60" arrivalSpeed="12.31" duration="10.00" routeLength="80.50" waitingTime="0.00" waitingCount="0" stopTime="0.00" timeLoss="3.10" rerouteNo="0" devices="tripinfo_174" vType="DEFAULT_VEHTYPE" speedFactor="0.94" vaporized=""/>
    <tripinfo id="154" depart="48.00" departLane="12_3way_B10to3way_A09_0" departPos="5.10" departSpeed="0.00" departDelay="0.26" arrival="67.00" arrivalLane="12_3way_B10to3way_A09_0" arrivalPos="182.40" arrivalSpeed="10.63" duration="19.00" routeLength="177.30" waitingTime="0.00" waitingCount="0" stopTime="0.00" timeLoss="3.49" rerouteNo="0" devices="tripinfo_154" vType="DEFAULT_VEHTYPE" speedFactor="0.84" vaporized=""/>
    <tripinfo id="184" depart="58.00" departLane="90_4way_E01to4way_F01_0" departPos="5.10" departSpeed="0.00" departDelay="0.96" arrival="67.00" arrivalLane="90_4way_E01to4way_F01_0" arrivalPos="85.60" arrivalSpeed="14.18" duration="9.00" routeLength="80.50" waitingTime="0.00" waitingCount="0" stopTime="0.00" timeLoss="2.98" rerouteNo="0" devices="tripinfo_184" vType="DEFAULT_VEHTYPE" speedFactor="1.02" vaporized=""/>
    <tripinfo id="70" depart="22.00" departLane="95_4way_E06to4way_E05_0" departPos="5.10" departSpeed="0.00" departDelay="0.30" arrival="70.00" arrivalLane="96_4way_E05to4way_F05_0" arrivalPos="85.60" arrivalSpeed="6.10" duration="48.00" routeLength="175.13" waitingTime="21.00" waitingCount="1" stopTime="0.00" timeLoss="29.86" rerouteNo="0" devices="tripinfo_70" vType="DEFAULT_VEHTYPE" speedFactor="0.75" vaporized=""/>
    <tripinfo id="135" depart="42.00" departLane="63_4way_G06to3way_H06_0" departPos="5.10" departSpeed="0.00" departDelay="0.15" arrival="70.00" arrivalLane="60_3way_H06to3way_H05_0" arrivalPos="85.60" arrivalSpeed="6.02" duration="28.00" routeLength="180.29" waitingTime="5.00" waitingCount="1" stopTime="0.00" timeLoss="15.17" rerouteNo="0" devices="tripinfo_135" vType="DEFAULT_VEHTYPE" speedFactor="1.09" vaporized=""/>
    <tripinfo id="179" depart="56.00" departLane="23_3way_C04to4way_D04_0" departPos="5.10" departSpeed="0.00" departDelay="0.51" arrival="73.00" arrivalLane="23_3way_C04to4way_D04_0" arrivalPos="85.60" arrivalSpeed="8.94" duration="17.00" routeLength="80.50" waitingTime="2.00" waitingCount="1" stopTime="0.00" timeLoss="10.39" rerouteNo="0" devices="tripinfo_179" vType="DEFAULT_VEHTYPE" speedFactor="0.97" vaporized=""/>
    <tripinfo id="206" depart="64.00" departLane="36_4way_D09to3way_D10_0" departPos="5.10" departSpeed="0.00" departDelay="0.14" arrival="74.00" arrivalLane="36_4way_D09to3way_D10_0" arrivalPos="85.60" arrivalSpeed="12.39" duration="10.00" routeLength="80.50" waitingTime="0.00" waitingCount="0" stopTime="0.00" timeLoss="3.17" rerouteNo="0" devices="tripinfo_206" vType="DEFAULT_VEHTYPE" speedFactor="0.92" vaporized=""/>
    <tripinfo id="207" depart="65.00" departLane="128_4way_G09to4way_G08_0" departPos="5.10" departSpeed="0.00" departDelay="0.83" arrival="74.00" arrivalLane="128_4way_G09to4way_G08_0" arrivalPos="85.60" arrivalSpeed="16.97" duration="9.00" routeLength="80.50" waitingTime="0.00" waitingCount="0" stopTime="0.00" timeLoss="3.80" rerouteNo="0" devices="tripinfo_207" vType="DEFAULT_VEHTYPE" speedFactor="1.24" vaporized=""/>
    <tripinfo id="15" depart="5.00" departLane="107_4way_F02to4way_G02_0" departPos="5.10" departSpeed="0.00" departDelay="0.35" arrival="76.00" arrivalLane="55_4way_G02to3way_H02_0" arrivalPos="85.60" arrivalSpeed="14.49" duration="71.00" routeLength="180.50" waitingTime="49.00" waitingCount="1" stopTime="0.00" timeLoss="58.39" rerouteNo="0" devices="tripinfo_15" vType="DEFAULT_VEHTYPE" speedFactor="1.05" vaporized=""/>
    <tripinfo id="49" depart="17.00" departLane="127_4way_G07to4way_G08_0" departPos="5.10" departSpeed="0.00" departDelay="1.81" arrival="76.00" arrivalLane="102_4way_F08to4way_E08_0" arrivalPos="85.60" arrivalSpeed="14.33" duration="59.00" routeLength="275.13" waitingTime="29.00" waitingCount="1" stopTime="0.00" timeLoss="40.04" rerouteNo="0" devices="tripinfo_49" vType="DEFAULT_VEHTYPE" speedFactor="1.08" vaporized=""/>
    <tripinfo id="116" depart="36.00" departLane="24_3way_C06to4way_B06_0" departPos="5.10" departSpeed="0.00" departDelay="0.04" arrival="76.00" arrivalLane="17_4way_B06to3way_B05_0" arrivalPos="85.60" arrivalSpeed="13.61" duration="40.00" routeLength="175.13" waitingTime="18.00" waitingCount="1" stopTime="0.00" timeLoss="26.39" rerouteNo="0" devices="tripinfo_116" vType="DEFAULT_VEHTYPE" speedFactor="0.99" vaporized=""/>
    <tripinfo id="18" depart="6.00" departLane="96_4way_E05to4way_F05_0" departPos="5.10" departSpeed="0.00" departDelay="0.42" arrival="77.00" arrivalLane="113_4way_F05to4way_G05_0" arrivalPos="85.60" arrivalSpeed="12.25" duration="71.00" routeLength="180.50" waitingTime="48.00" waitingCount="1" stopTime="0.00" timeLoss="56.93" rerouteNo="0" devices="tripinfo_18" vType="DEFAULT_VEHTYPE" speedFactor="0.96" vaporized=""/>
    <tripinfo id="58" depart="18.00" departLane="77_4way_C09to4way_C08_0" departPos="5.10" departSpeed="0.00" departDelay="0.02" arrival="77.00" arrivalLane="88_4way_D08to4way_E08_0" arrivalPos="85.60" arrivalSpeed="11.79" duration="59.00" routeLength="275.13" waitingTime="25.00" waitingCount="1" stopTime="0.00" timeLoss="36.67" rerouteNo="0" devices="tripinfo_58" vType="DEFAULT_VEHTYPE" speedFactor="0.93" vaporized=""/>
    <tripinfo id="63" depart="20.00" departLane="74_4way_B09to4way_C09_0" departPos="5.10" departSpeed="0.00" departDelay="0.47" arrival="77.00" arrivalLane="79_4way_C09to4way_D09_0" arrivalPos="85.60" arrivalSpeed="12.53" duration="57.00" routeLength="180.50" waitingTime="34.00" waitingCount="1" stopTime="0.00" timeLoss="42.53" rerouteNo="0" devices="tripinfo_63" vType="DEFAULT_VEHTYPE" speedFactor="0.95" vaporized=""/>
    <tripinfo id="75" depart="24.00" departLane="118_4way_F08to4way_F09_0" departPos="5.10" departSpeed="0.00" departDelay="0.75" arrival="77.00" arrivalLane="35_3way_E10to3way_D10_0" arrivalPos="85.60" arrivalSpeed="14.05" duration="53.00" routeLength="375.13" waitingTime="14.00" waitingCount="1" stopTime="0.00" timeLoss="26.74" rerouteNo="0" devices="tripinfo_75" vType="DEFAULT_VEHTYPE" speedFactor="1.09" vaporized=""/>
    <tripinfo id="76" depart="24.00" departLane="34_3way_D05to4way_E05_0" departPos="5.10" departSpeed="0.00" departDelay="0.44" arrival="77.00" arrivalLane="96_4way_E05to4way_F05_0" arrivalPos="85.60" arrivalSpeed="11.35" duration="53.00" routeLength="180.50" waitingTime="30.00" waitingCount="1" stopTime="0.00" timeLoss="38.35" rerouteNo="0" devices="tripinfo_76" vType="DEFAULT_VEHTYPE" speedFactor="0.90" vaporized=""/>
    <tripinfo id="96" depart="30.00" departLane="56_3way_H03to3way_H04_0" departPos="5.10" departSpeed="0.00" departDelay="0.24" arrival="77.00" arrivalLane="58_3way_H04to3way_H05_0" arrivalPos="85.60" arrivalSpeed="12.24" duration="47.00" routeLength="180.50" waitingTime="25.00" waitingCount="1" stopTime="0.00" timeLoss="33.22" rerouteNo="0" devices="tripinfo_96" vType="DEFAULT_VEHTYPE" speedFactor="0.95" vaporized=""/>
    <tripinfo id="107" depart="34.00" departLane="114_4way_F06to4way_F07_0" departPos="5.10" departSpeed="0.00" departDelay="0.83" arrival="78.00" arrivalLane="86_4way_E07to4way_D07_0" arrivalPos="85.60" arrivalSpeed="14.09" duration="44.00" routeLength="275.13" waitingTime="14.00" waitingCount="1" stopTime="0.00" timeLoss="25.17" rerouteNo="0" devices="tripinfo_107" vType="DEFAULT_VEHTYPE" speedFactor="1.10" vaporized=""/>
    <tripinfo id="132" depart="41.00" departLane="75_4way_C07to4way_C08_0" departPos="5.10" departSpeed="0.00" departDelay="0.08" arrival="78.00" arrivalLane="11_4way_B08to3way_A08_0" arrivalPos="85.60" arrivalSpeed="11.84" duration="37.00" routeLength="275.13" waitingTime="3.00" waitingCount="1" stopTime="0.00" timeLoss="12.06" rerouteNo="0" devices="tripinfo_132" vType="DEFAULT_VEHTYPE" speedFactor="0.86" vaporized=""/>
    <tripinfo id="60" depart="19.00" departLane="87_4way_D08to4way_D09_0" departPos="5.10" departSpeed="0.00" departDelay="0.40" arrival="79.00" arrivalLane="74_4way_C09to4way_B09_0" arrivalPos="85.60" arrivalSpeed="14.30" duration="60.00" routeLength="275.13" waitingTime="29.00" waitingCount="1" stopTime="0.00" timeLoss="40.97" rerouteNo="0" devices="tripinfo_60" vType="DEFAULT_VEHTYPE" speedFactor="1.12" vaporized=""/>
    <tripinfo id="101" depart="32.00" departLane="23_3way_C04to4way_D04_0" departPos="5.10" departSpeed="0.00" departDelay="0.69" arrival="79.00" arrivalLane="82_4way_D04to4way_E04_0" arrivalPos="85.60" arrivalSpeed="8.83" duration="47.00" routeLength="180.50" waitingTime="24.00" waitingCount="1" stopTime="0.00" timeLoss="34.22" rerouteNo="0" devices="tripinfo_101" vType="DEFAULT_VEHTYPE" speedFactor="1.03" vaporized=""/>
    <tripinfo id="110" depart="35.00" departLane="63_4way_G06to3way_H06_0" departPos="5.10" departSpeed="0.00" departDelay="0.90" arrival="80.00" arrivalLane="64_3way_H07to3way_H08_0" arrivalPos="85.60" arrivalSpeed="13.71" duration="45.00" routeLength="275.13" waitingTime="12.00" waitingCount="1" stopTime="0.00" timeLoss="25.27" rerouteNo="0" devices="tripinfo_110" vType="DEFAULT_VEHTYPE" speedFactor="1.05" vaporized=""/>
    <tripinfo id="112" depart="35.00" departLane="99_4way_E08to4way_E07_0" departPos="5.10" departSpeed="0.00" departDelay="0.28" arrival="80.00" arrivalLane="115_4way_F06to4way_G06_0" arrivalPos="85.60" arrivalSpeed="13.07" duration="45.00" routeLength="375.13" waitingTime="2.00" waitingCount="1" stopTime="0.00" timeLoss="15.25" rerouteNo="0" devices="tripinfo_112" vType="DEFAULT_VEHTYPE" speedFactor="0.95" vaporized=""/>
    <tripinfo id="118" depart="37.00" departLane="36_3way_D10to4way_D09_0" departPos="5.10" departSpeed="0.00" departDelay="0.42" arrival="80.00" arrivalLane="103_4way_E09to4way_F09_0" arrivalPos="85.60" arrivalSpeed="13.07" duration="43.00" routeLength="275.13" waitingTime="10.00" waitingCount="1" stopTime="0.00" timeLoss="23.34" rerouteNo="0" devices="tripinfo_118" vType="DEFAULT_VEHTYPE" speedFactor="1.05" vaporized=""/>
    <tripinfo id="109" depart="34.00" departLane="108_4way_F04to4way_F03_0" departPos="5.10" departSpeed="0.00" departDelay="0.21" arrival="81.00" arrivalLane="55_4way_G02to3way_H02_0" arrivalPos="85.60" arrivalSpeed="13.32" duration="47.00" routeLength="375.13" waitingTime="6.00" waitingCount="1" stopTime="0.00" timeLoss="19.55" rerouteNo="0" devices="tripinfo_109" vType="DEFAULT_VEHTYPE" speedFactor="1.04" vaporized=""/>
    <tripinfo id="113" depart="36.00" departLane="60_3way_H06to3way_H05_0" departPos="5.10" departSpeed="0.00" departDelay="0.97" arrival="83.00" arrivalLane="56_3way_H04to3way_H03_0" arrivalPos="85.60" arrivalSpeed="15.16" duration="47.00" routeLength="280.50" waitingTime="18.00" waitingCount="1" stopTime="0.00" timeLoss="28.29" rerouteNo="0" devices="tripinfo_113" vType="DEFAULT_VEHTYPE" speedFactor="1.10" vaporized=""/>
    <tripinfo id="2" depart="1.00" departLane="40_3way_E02to4way_E03_0" departPos="5.10" departSpeed="0.00" departDelay="0.38" arrival="84.00" arrivalLane="74_4way_C09to4way_B09_0" arrivalPos="85.60" arrivalSpeed="13.36" duration="83.00" routeLength="975.13" waitingTime="0.00" waitingCount="0" stopTime="0.00" timeLoss="14.18" rerouteNo="0" devices="tripinfo_2" vType="DEFAULT_VEHTYPE" speedFactor="1.04" vaporized=""/>
    <tripinfo id="26" depart="9.00" departLane="57_3way_H03to4way_G03_0" departPos="5.10" departSpeed="0.00" departDelay="0.94" arrival="84.00" arrivalLane="92_4way_F03to4way_E03_0" arrivalPos="85.60" arrivalSpeed="13.74" duration="75.00" routeLength="280.50" waitingTime="45.00" waitingCount="1" stopTime="0.00" timeLoss="54.93" rerouteNo="0" devices="tripinfo_26" vType="DEFAULT_VEHTYPE" speedFactor="1.03" vaporized=""/>
    <tripinfo id="88" depart="29.00" departLane="36_4way_D09to3way_D10_0" departPos="5.10" departSpeed="0.00" departDelay="1.72" arrival="84.00" arrivalLane="46_3way_F10to3way_G10_0" arrivalPos="85.60" arrivalSpeed="14.00" duration="55.00" routeLength="380.29" waitingTime="16.00" waitingCount="1" stopTime="0.00" timeLoss="28.27" rerouteNo="0" devices="tripinfo_88" vType="DEFAULT_VEHTYPE" speedFactor="1.06" vaporized=""/>
    <tripinfo id="94" depart="32.00" departLane="61_4way_G05to3way_H05_0" departPos="5.10" departSpeed="0.00" departDelay="2.86" arrival="84.00" arrivalLane="64_3way_H07to3way_H08_0" arrivalPos="85.60" arrivalSpeed="13.94" duration="52.00" routeLength="375.13" waitingTime="14.00" waitingCount="1" stopTime="0.00" timeLoss="26.21" rerouteNo="0" devices="tripinfo_94" vType="DEFAULT_VEHTYPE" speedFactor="1.08" vaporized=""/>
    <tripinfo id="171" depart="54.00" departLane="37_3way_F00to3way_E00_0" departPos="5.10" departSpeed="0.00" departDelay="0.99" arrival="84.00" arrivalLane="29_3way_E00to3way_D01_0" arrivalPos="188.80" arrivalSpeed="14.31" duration="30.00" routeLength="283.70" waitingTime="1.00" waitingCount="1" stopTime="0.00" timeLoss="10.17" rerouteNo="0" devices="tripinfo_171" vType="DEFAULT_VEHTYPE" speedFactor="1.04" vaporized=""/>
    <tripinfo id="34" depart="11.00" departLane="88_4way_D08to4way_E08_0" departPos="5.10" departSpeed="0.00" departDelay="0.46" arrival="85.00" arrivalLane="119_4way_F08to4way_G08_0" arrivalPos="85.60" arrivalSpeed="12.59" duration="74.00" routeLength="280.50" waitingTime="42.00" waitingCount="1" stopTime="0.00" timeLoss="52.77" rerouteNo="0" devices="tripinfo_34" vType="DEFAULT_VEHTYPE" speedFactor="0.96" vaporized=""/>
    <tripinfo id="155" depart="49.00" departLane="59_3way_H04to4way_G04_0" departPos="5.10" departSpeed="0.00" departDelay="0.95" arrival="85.00" arrivalLane="94_4way_F04to4way_E04_0" arrivalPos="85.60" arrivalSpeed="12.97" duration="36.00" routeLength="280.50" waitingTime="5.00" waitingCount="1" stopTime="0.00" timeLoss="14.54" rerouteNo="0" devices="tripinfo_155" vType="DEFAULT_VEHTYPE" speedFactor="0.94" vaporized=""/>
    <tripinfo id="169" depart="53.00" departLane="6_3way_A07to3way_A06_0" departPos="5.10" departSpeed="0.00" departDelay="0.61" arrival="86.00" arrivalLane="24_4way_B06to3way_C06_0" arrivalPos="85.60" arrivalSpeed="14.59" duration="33.00" routeLength="275.13" waitingTime="4.00" waitingCount="1" stopTime="0.00" timeLoss="13.91" rerouteNo="0" devices="tripinfo_169" vType="DEFAULT_VEHTYPE" speedFactor="1.09" vaporized=""/>
    <tripinfo id="21" depart="7.00" departLane="43_3way_E10to4way_E09_0" departPos="5.10" departSpeed="0.00" departDelay="0.49" arrival="87.00" arrivalLane="63_4way_G06to3way_H06_0" arrivalPos="85.60" arrivalSpeed="10.72" duration="80.00" routeLength="675.13" waitingTime="9.00" waitingCount="1" stopTime="0.00" timeLoss="20.31" rerouteNo="0" devices="tripinfo_21" vType="DEFAULT_VEHTYPE" speedFactor="0.82" vaporized=""/>
    <tripinfo id="42" depart="14.00" departLane="124_4way_G04to4way_G05_0" departPos="5.10" departSpeed="0.00" departDelay="0.98" arrival="87.00" arrivalLane="84_4way_E06to4way_D06_0" arrivalPos="85.60" arrivalSpeed="12.51" duration="73.00" routeLength="475.13" waitingTime="23.00" waitingCount="1" stopTime="0.00" timeLoss="37.57" rerouteNo="0" devices="tripinfo_42" vType="DEFAULT_VEHTYPE" speedFactor="0.99" vaporized=""/>
    <tripinfo id="104" depart="33.00" departLane="57_3way_H03to4way_G03_0" departPos="5.10" departSpeed="0.00" departDelay="0.76" arrival="87.00" arrivalLane="92_4way_F03to4way_E03_0" arrivalPos="85.60" arrivalSpeed="12.33" duration="54.00" routeLength="280.50" waitingTime="24.00" waitingCount="1" stopTime="0.00" timeLoss="32.14" rerouteNo="0" devices="tripinfo_104" vType="DEFAULT_VEHTYPE" speedFactor="0.95" vaporized=""/>
    <tripinfo id="189" depart="59.00" departLane="84_4way_D06to4way_E06_0" departPos="5.10" departSpeed="0.00" departDelay="0.41" arrival="89.00" arrivalLane="115_4way_F06to4way_G06_0" arrivalPos="85.60" arrivalSpeed="12.08" duration="30.00" routeLength="280.50" waitingTime="0.00" waitingCount="0" stopTime="0.00" timeLoss="7.93" rerouteNo="0" devices="tripinfo_189" vType="DEFAULT_VEHTYPE" speedFactor="0.92" vaporized=""/>
    <tripinfo id="95" depart="32.00" departLane="78_4way_C08to4way_D08_0" departPos="5.10" departSpeed="0.00" departDelay="2.55" arrival="90.00" arrivalLane="101_4way_E08to4way_E09_0" arrivalPos="85.60" arrivalSpeed="11.23" duration="58.00" routeLength="275.13" waitingTime="24.00" waitingCount="1" stopTime="0.00" timeLoss="34.35" rerouteNo="0" devices="tripinfo_95" vType="DEFAULT_VEHTYPE" speedFactor="0.88" vaporized=""/>
    <tripinfo id="146" depart="46.00" departLane="47_4way_F09to3way_F10_0" departPos="5.10" departSpeed="0.00" departDelay="0.74" arrival="90.00" arrivalLane="27_3way_D10to3way_C10_0" arrivalPos="85.60" arrivalSpeed="14.59" duration="44.00" routeLength="375.13" waitingTime="2.00" waitingCount="1" stopTime="0.00" timeLoss="16.94" rerouteNo="0" devices="tripinfo_146" vType="DEFAULT_VEHTYPE" speedFactor="1.07" vaporized=""/>
    <tripinfo id="67" depart="21.00" departLane="21_3way_C03to4way_D03_0" departPos="5.10" departSpeed="0.00" departDelay="0.23" arrival="91.00" arrivalLane="40_4way_E03to3way_E02_0" arrivalPos="85.60" arrivalSpeed="11.10" duration="70.00" routeLength="280.30" waitingTime="35.00" waitingCount="1" stopTime="0.00" timeLoss="46.05" rerouteNo="0" devices="tripinfo_67" vType="DEFAULT_VEHTYPE" speedFactor="0.88" vaporized=""/>
    <tripinfo id="100" depart="31.00" departLane="8_3way_A08to3way_A07_0" departPos="5.10" departSpeed="0.00" departDelay="0.00" arrival="91.00" arrivalLane="4_3way_A06to3way_A05_0" arrivalPos="85.60" arrivalSpeed="16.55" duration="60.00" routeLength="280.50" waitingTime="24.00" waitingCount="1" stopTime="0.00" timeLoss="42.89" rerouteNo="0" devices="tripinfo_100" vType="DEFAULT_VEHTYPE" speedFactor="1.20" vaporized=""/>
    <tripinfo id="120" depart="41.00" departLane="71_4way_B07to4way_C07_0" departPos="5.10" departSpeed="0.00" departDelay="3.80" arrival="91.00" arrivalLane="86_4way_D07to4way_E07_0" arrivalPos="85.60" arrivalSpeed="13.94" duration="50.00" routeLength="280.50" waitingTime="17.00" waitingCount="1" stopTime="0.00" timeLoss="30.04" rerouteNo="0" devices="tripinfo_120" vType="DEFAULT_VEHTYPE" speedFactor="1.06" vaporized=""/>
    <tripinfo id="28" depart="9.00" departLane="27_3way_C10to3way_D10_0" departPos="5.10" departSpeed="0.00" departDelay="0.32" arrival="92.00" arrivalLane="46_3way_F10to3way_G10_0" arrivalPos="85.60" arrivalSpeed="13.20" duration="83.00" routeLength="380.50" waitingTime="45.00" waitingCount="1" stopTime="0.00" timeLoss="55.51" rerouteNo="0" devices="tripinfo_28" vType="DEFAULT_VEHTYPE" speedFactor="1.03" vaporized=""/>
    <tripinfo id="204" depart="66.00" departLane="56_3way_H03to3way_H04_0" departPos="5.10" departSpeed="0.00" departDelay="2.76" arrival="92.00" arrivalLane="60_3way_H05to3way_H06_0" arrivalPos="85.60" arrivalSpeed="15.32" duration="26.00" routeLength="280.50" waitingTime="0.00" waitingCount="0" stopTime="0.00" timeLoss="7.09" rerouteNo="0" devices="tripinfo_204" vType="DEFAULT_VEHTYPE" speedFactor="1.12" vaporized=""/>
    <tripinfo id="265" depart="83.00" departLane="84_4way_E06to4way_D06_0" departPos="5.10" departSpeed="0.00" departDelay="0.85" arrival="92.00" arrivalLane="84_4way_E06to4way_D06_0" arrivalPos="85.60" arrivalSpeed="13.37" duration="9.00" routeLength="80.50" waitingTime="0.00" waitingCount="0" stopTime="0.00" timeLoss="3.06" rerouteNo="0" devices="tripinfo_265" vType="DEFAULT_VEHTYPE" speedFactor="0.99" vaporized=""/>
    <tripinfo id="24" depart="8.00" departLane="28_3way_C10to4way_C09_0" departPos="5.10" departSpeed="0.00" departDelay="0.56" arrival="93.00" arrivalLane="120_4way_F09to4way_G09_0" arrivalPos="85.60" arrivalSpeed="12.61" duration="85.00" routeLength="475.13" waitingTime="36.00" waitingCount="1" stopTime="0.00" timeLoss="48.05" rerouteNo="0" devices="tripinfo_24" vType="DEFAULT_VEHTYPE" speedFactor="0.97" vaporized=""/>
    <tripinfo id="25" depart="8.00" departLane="50_3way_G10to3way_H09_0" departPos="5.10" departSpeed="0.00" departDelay="0.25" arrival="93.00" arrivalLane="62_3way_H07to3way_H06_0" arrivalPos="85.60" arrivalSpeed="12.64" duration="85.00" routeLength="483.70" waitingTime="37.00" waitingCount="1" stopTime="0.00" timeLoss="47.99" rerouteNo="0" devices="tripinfo_25" vType="DEFAULT_VEHTYPE" speedFactor="0.95" vaporized=""/>