<?xml version="1.0" encoding="UTF-8"?>

<!-- generated on 2023-07-28 18:34:13 by Eclipse SUMO sumo Version 1.12.0
<configuration xmlns:xsi="http://www.w3.org/2001/XMLSchema-instance" xsi:noNamespaceSchemaLocation="http://sumo.dlr.de/xsd/sumoConfiguration.xsd">

    <input>
        <net-file value="../../data_generation/sq.net.xml"/>
        <route-files value="../../data_generation/sq.rou.xml"/>
    </input>

    <output>
        <tripinfo-output value="tripinfo.xml"/>
        <statistic-output value="statistic.xml"/>
    </output>

    <time>
        <begin value="0"/>
        <end value="3600"/>
    </time>

    <processing>
        <time-to-teleport value="-1"/>
    </processing>

    <traci_server>
        <remote-port value="33271"/>
    </traci_server>

    <random_number>
        <seed value="1395"/>
    </random_number>

    <gui_only>
        <gui-settings-file value="../../data_generation/view_HY_0402.xml"/>
    </gui_only>

</configuration>
-->

<tripinfos xmlns:xsi="http://www.w3.org/2001/XMLSchema-instance" xsi:noNamespaceSchemaLocation="http://sumo.dlr.de/xsd/tripinfo_file.xsd">
    <tripinfo id="7" depart="2.00" departLane="34_3way_7to3way_6_0" departPos="5.10" departSpeed="0.00" departDelay="0.70" arrival="12.00" arrivalLane="34_3way_7to3way_6_0" arrivalPos="85.60" arrivalSpeed="13.16" duration="10.00" routeLength="80.50" waitingTime="0.00" waitingCount="0" stopTime="0.00" timeLoss="3.25" rerouteNo="0" devices="tripinfo_7" vType="DEFAULT_VEHTYPE" speedFactor="0.95" vaporized=""/>
    <tripinfo id="9" depart="2.00" departLane="104_4way_42to4way_41_0" departPos="5.10" departSpeed="0.00" departDelay="0.33" arrival="12.00" arrivalLane="104_4way_42to4way_41_0" arrivalPos="85.60" arrivalSpeed="12.23" duration="10.00" routeLength="80.50" waitingTime="0.00" waitingCount="0" stopTime="0.00" timeLoss="2.68" rerouteNo="0" devices="tripinfo_9" vType="DEFAULT_VEHTYPE" speedFactor="0.91" vaporized=""/>
    <tripinfo id="38" depart="8.00" departLane="21_4way_37to3way_36_0" departPos="5.10" departSpeed="0.00" departDelay="0.97" arrival="18.00" arrivalLane="21_4way_37to3way_36_0" arrivalPos="85.60" arrivalSpeed="13.47" duration="10.00" routeLength="80.50" waitingTime="0.00" waitingCount="0" stopTime="0.00" timeLoss="3.31" rerouteNo="0" devices="tripinfo_38" vType="DEFAULT_VEHTYPE" speedFactor="1.00" vaporized=""/>
    <tripinfo id="10" depart="2.00" departLane="130_4way_59to4way_60_0" departPos="5.10" departSpeed="0.00" departDelay="0.15" arrival="19.00" arrivalLane="132_4way_60to4way_61_0" arrivalPos="85.60" arrivalSpeed="14.11" duration="17.00" routeLength="180.50" waitingTime="0.00" waitingCount="0" stopTime="0.00" timeLoss="3.69" rerouteNo="0" devices="tripinfo_10" vType="DEFAULT_VEHTYPE" speedFactor="1.04" vaporized=""/>
    <tripinfo id="51" depart="10.00" departLane="88_4way_30to4way_39_0" departPos="5.10" departSpeed="0.00" departDelay="0.56" arrival="21.00" arrivalLane="88_4way_30to4way_39_0" arrivalPos="85.60" arrivalSpeed="9.57" duration="11.00" routeLength="80.50" waitingTime="0.00" waitingCount="0" stopTime="0.00" timeLoss="2.33" rerouteNo="0" devices="tripinfo_51" vType="DEFAULT_VEHTYPE" speedFactor="0.74" vaporized=""/>
    <tripinfo id="16" depart="3.00" departLane="62_4way_21to4way_12_0" departPos="5.10" departSpeed="0.00" departDelay="0.04" arrival="23.00" arrivalLane="59_4way_12to4way_11_0" arrivalPos="85.60" arrivalSpeed="12.25" duration="20.00" routeLength="175.13" waitingTime="0.00" waitingCount="0" stopTime="0.00" timeLoss="5.29" rerouteNo="0" devices="tripinfo_16" vType="DEFAULT_VEHTYPE" speedFactor="0.90" vaporized=""/>
    <tripinfo id="71" depart="14.00" departLane="6_4way_16to3way_17_0" departPos="5.10" departSpeed="0.00" departDelay="0.86" arrival="23.00" arrivalLane="6_4way_16to3way_17_0" arrivalPos="85.60" arrivalSpeed="15.10" duration="9.00" routeLength="80.50" waitingTime="0.00" waitingCount="0" stopTime="0.00" timeLoss="3.58" rerouteNo="0" devices="tripinfo_71" vType="DEFAULT_VEHTYPE" speedFactor="1.13" vaporized=""/>
    <tripinfo id="60" depart="13.00" departLane="111_4way_48to4way_47_0" departPos="5.10" departSpeed="0.00" departDelay="1.89" arrival="29.00" arrivalLane="109_4way_47to4way_46_0" arrivalPos="85.60" arrivalSpeed="14.42" duration="16.00" routeLength="180.50" waitingTime="0.00" waitingCount="0" stopTime="0.00" timeLoss="3.82" rerouteNo="0" devices="tripinfo_60" vType="DEFAULT_VEHTYPE" speedFactor="1.12" vaporized=""/>
    <tripinfo id="13" depart="3.00" departLane="19_4way_34to3way_35_0" departPos="5.10" departSpeed="0.00" departDelay="0.59" arrival="30.00" arrivalLane="24_3way_44to3way_53_0" arrivalPos="85.60" arrivalSpeed="13.52" duration="27.00" routeLength="280.29" waitingTime="0.00" waitingCount="0" stopTime="0.00" timeLoss="4.79" rerouteNo="0" devices="tripinfo_13" vType="DEFAULT_VEHTYPE" speedFactor="0.98" vaporized=""/>
    <tripinfo id="75" depart="14.00" departLane="93_4way_33to4way_34_0" departPos="5.10" departSpeed="0.00" departDelay="0.12" arrival="30.00" arrivalLane="19_4way_34to3way_35_0" arrivalPos="85.60" arrivalSpeed="14.98" duration="16.00" routeLength="180.50" waitingTime="0.00" waitingCount="0" stopTime="0.00" timeLoss="3.69" rerouteNo="0" devices="tripinfo_75" vType="DEFAULT_VEHTYPE" speedFactor="1.09" vaporized=""/>
    <tripinfo id="81" depart="15.00" departLane="2_3way_9to3way_1_0" departPos="5.10" departSpeed="0.00" departDelay="0.01" arrival="32.00" arrivalLane="2_3way_9to3way_1_0" arrivalPos="188.80" arrivalSpeed="14.40" duration="17.00" routeLength="183.70" waitingTime="0.00" waitingCount="0" stopTime="0.00" timeLoss="3.75" rerouteNo="0" devices="tripinfo_81" vType="DEFAULT_VEHTYPE" speedFactor="1.05" vaporized=""/>
    <tripinfo id="116" depart="23.00" departLane="57_4way_11to4way_10_0" departPos="5.10" departSpeed="0.00" departDelay="1.53" arrival="32.00" arrivalLane="57_4way_11to4way_10_0" arrivalPos="85.60" arrivalSpeed="13.45" duration="9.00" routeLength="80.50" waitingTime="0.00" waitingCount="0" stopTime="0.00" timeLoss="2.62" rerouteNo="0" devices="tripinfo_116" vType="DEFAULT_VEHTYPE" speedFactor="0.99" vaporized=""/>
    <tripinfo id="124" depart="23.00" departLane="79_4way_23to4way_32_0" departPos="5.10" departSpeed="0.00" departDelay="0.05" arrival="32.00" arrivalLane="79_4way_23to4way_32_0" arrivalPos="85.60" arrivalSpeed="15.43" duration="9.00" routeLength="80.50" waitingTime="0.00" waitingCount="0" stopTime="0.00" timeLoss="3.77" rerouteNo="0" devices="tripinfo_124" vType="DEFAULT_VEHTYPE" speedFactor="1.11" vaporized=""/>
    <tripinfo id="147" depart="28.00" departLane="108_4way_43to4way_52_0" departPos="5.10" departSpeed="0.00" departDelay="0.79" arrival="38.00" arrivalLane="108_4way_43to4way_52_0" arrivalPos="85.60" arrivalSpeed="12.37" duration="10.00" routeLength="80.50" waitingTime="0.00" waitingCount="0" stopTime="0.00" timeLoss="3.38" rerouteNo="0" devices="tripinfo_147" vType="DEFAULT_VEHTYPE" speedFactor="0.97" vaporized=""/>
    <tripinfo id="18" depart="4.00" departLane="102_4way_40to4way_41_0" departPos="5.10" departSpeed="0.00" departDelay="0.67" arrival="39.00" arrivalLane="95_4way_43to4way_34_0" arrivalPos="85.60" arrivalSpeed="12.55" duration="35.00" routeLength="375.13" waitingTime="0.00" waitingCount="0" stopTime="0.00" timeLoss="5.63" rerouteNo="0" devices="tripinfo_18" vType="DEFAULT_VEHTYPE" speedFactor="0.96" vaporized=""/>
    <tripinfo id="22" depart="5.00" departLane="56_4way_10to3way_9_0" departPos="5.10" departSpeed="0.00" departDelay="0.93" arrival="39.00" arrivalLane="14_3way_27to3way_36_0" arrivalPos="85.60" arrivalSpeed="13.76" duration="34.00" routeLength="375.13" waitingTime="0.00" waitingCount="0" stopTime="0.00" timeLoss="5.77" rerouteNo="0" devices="tripinfo_22" vType="DEFAULT_VEHTYPE" speedFactor="1.00" vaporized=""/>
    <tripinfo id="160" depart="30.00" departLane="103_4way_49to4way_40_0" departPos="5.10" departSpeed="0.00" departDelay="0.38" arrival="39.00" arrivalLane="103_4way_49to4way_40_0" arrivalPos="85.60" arrivalSpeed="12.22" duration="9.00" routeLength="80.50" waitingTime="0.00" waitingCount="0" stopTime="0.00" timeLoss="2.24" rerouteNo="0" devices="tripinfo_160" vType="DEFAULT_VEHTYPE" speedFactor="0.88" vaporized=""/>
    <tripinfo id="212" depart="40.00" departLane="109_4way_46to4way_47_0" departPos="5.10" departSpeed="0.00" departDelay="0.76" arrival="49.00" arrivalLane="109_4way_46to4way_47_0" arrivalPos="85.60" arrivalSpeed="12.72" duration="9.00" routeLength="80.50" waitingTime="0.00" waitingCount="0" stopTime="0.00" timeLoss="2.84" rerouteNo="0" devices="tripinfo_212" vType="DEFAULT_VEHTYPE" speedFactor="1.00" vaporized=""/>
    <tripinfo id="171" depart="32.00" departLane="17_3way_3to4way_12_0" departPos="5.10" departSpeed="0.00" departDelay="0.35" arrival="50.00" arrivalLane="61_4way_12to4way_13_0" arrivalPos="85.60" arrivalSpeed="13.35" duration="18.00" routeLength="175.13" waitingTime="0.00" waitingCount="0" stopTime="0.00" timeLoss="5.30" rerouteNo="0" devices="tripinfo_171" vType="DEFAULT_VEHTYPE" speedFactor="1.04" vaporized=""/>
    <tripinfo id="112" depart="21.00" departLane="66_4way_14to4way_23_0" departPos="5.10" departSpeed="0.00" departDelay="0.27" arrival="56.00" arrivalLane="93_4way_33to4way_34_0" arrivalPos="85.60" arrivalSpeed="13.09" duration="35.00" routeLength="375.13" waitingTime="0.00" waitingCount="0" stopTime="0.00" timeLoss="5.79" rerouteNo="0" devices="tripinfo_112" vType="DEFAULT_VEHTYPE" speedFactor="0.95" vaporized=""/>
    <tripinfo id="252" depart="47.00" departLane="126_4way_58to4way_57_0" departPos="5.10" departSpeed="0.00" departDelay="0.35" arrival="57.00" arrivalLane="126_4way_58to4way_57_0" arrivalPos="85.60" arrivalSpeed="13.03" duration="10.00" routeLength="80.50" waitingTime="0.00" waitingCount="0" stopTime="0.00" timeLoss="3.22" rerouteNo="0" devices="tripinfo_252" vType="DEFAULT_VEHTYPE" speedFactor="0.98" vaporized=""/>
    <tripinfo id="257" depart="48.00" departLane="3_4way_10to3way_1_0" departPos="5.10" departSpeed="0.00" departDelay="0.43" arrival="58.00" arrivalLane="3_4way_10to3way_1_0" arrivalPos="85.60" arrivalSpeed="10.38" duration="10.00" routeLength="80.50" waitingTime="0.00" waitingCount="0" stopTime="0.00" timeLoss="2.83" rerouteNo="0" devices="tripinfo_257" vType="DEFAULT_VEHTYPE" speedFactor="0.83" vaporized=""/>
    <tripinfo id="153" depart="29.00" departLane="24_3way_53to3way_44_0" departPos="5.10" departSpeed="0.00" departDelay="0.68" arrival="66.00" arrivalLane="104_4way_42to4way_41_0" arrivalPos="85.60" arrivalSpeed="11.73" duration="37.00" routeLength="375.13" waitingTime="0.00" waitingCount="0" stopTime="0.00" timeLoss="5.80" rerouteNo="0" devices="tripinfo_153" vType="DEFAULT_VEHTYPE" speedFactor="0.90" vaporized=""/>
    <tripinfo id="218" depart="41.00" departLane="132_4way_61to4way_60_0" departPos="5.10" departSpeed="0.00" departDelay="0.65" arrival="68.00" arrivalLane="131_4way_59to4way_68_0" arrivalPos="85.60" arrivalSpeed="13.10" duration="27.00" routeLength="275.13" waitingTime="0.00" waitingCount="0" stopTime="0.00" timeLoss="5.11" rerouteNo="0" devices="tripinfo_218" vType="DEFAULT_VEHTYPE" speedFactor="0.96" vaporized=""/>
    <tripinfo id="232" depart="43.00" departLane="79_4way_23to4way_32_0" departPos="5.10" departSpeed="0.00" departDelay="0.06" arrival="68.00" arrivalLane="93_4way_33to4way_34_0" arrivalPos="85.60" arrivalSpeed="13.59" duration="25.00" routeLength="275.13" waitingTime="0.00" waitingCount="0" stopTime="0.00" timeLoss="5.52" rerouteNo="0" devices="tripinfo_232" vType="DEFAULT_VEHTYPE" speedFactor="1.06" vaporized=""/>
    <tripinfo id="315" depart="59.00" departLane="93_4way_34to4way_33_0" departPos="5.10" departSpeed="0.00" departDelay="0.69" arrival="68.00" arrivalLane="93_4way_34to4way_33_0" arrivalPos="85.60" arrivalSpeed="12.68" duration="9.00" routeLength="80.50" waitingTime="0.00" waitingCount="0" stopTime="0.00" timeLoss="2.54" rerouteNo="0" devices="tripinfo_315" vType="DEFAULT_VEHTYPE" speedFactor="0.93" vaporized=""/>
    <tripinfo id="66" depart="13.00" departLane="74_4way_22to4way_21_0" departPos="5.10" departSpeed="0.00" departDelay="0.78" arrival="70.00" arrivalLane="75_4way_21to4way_30_0" arrivalPos="85.60" arrivalSpeed="4.76" duration="57.00" routeLength="175.13" waitingTime="30.00" waitingCount="1" stopTime="0.00" timeLoss="41.37" rerouteNo="0" devices="tripinfo_66" vType="DEFAULT_VEHTYPE" speedFactor="0.86" vaporized=""/>
    <tripinfo id="118" depart="22.00" departLane="19_3way_35to4way_34_0" departPos="5.10" departSpeed="0.00" departDelay="0.16" arrival="70.00" arrivalLane="94_4way_33to4way_42_0" arrivalPos="85.60" arrivalSpeed="5.58" duration="48.00" routeLength="275.13" waitingTime="15.00" waitingCount="1" stopTime="0.00" timeLoss="28.46" rerouteNo="0" devices="tripinfo_118" vType="DEFAULT_VEHTYPE" speedFactor="1.05" vaporized=""/>
    <tripinfo id="205" depart="38.00" departLane="134_4way_70to4way_61_0" departPos="5.10" departSpeed="0.00" departDelay="0.05" arrival="70.00" arrivalLane="134_4way_70to4way_61_0" arrivalPos="85.60" arrivalSpeed="5.21" duration="32.00" routeLength="80.50" waitingTime="19.00" waitingCount="1" stopTime="0.00" timeLoss="25.49" rerouteNo="0" devices="tripinfo_205" vType="DEFAULT_VEHTYPE" speedFactor="0.90" vaporized=""/>
    <tripinfo id="266" depart="50.00" departLane="101_4way_39to4way_48_0" departPos="5.10" departSpeed="0.00" departDelay="0.76" arrival="70.00" arrivalLane="101_4way_39to4way_48_0" arrivalPos="85.60" arrivalSpeed="4.59" duration="20.00" routeLength="80.50" waitingTime="6.00" waitingCount="1" stopTime="0.00" timeLoss="14.01" rerouteNo="0" devices="tripinfo_266" vType="DEFAULT_VEHTYPE" speedFactor="0.97" vaporized=""/>
    <tripinfo id="311" depart="58.00" departLane="122_4way_56to4way_55_0" departPos="5.10" departSpeed="0.00" departDelay="0.43" arrival="70.00" arrivalLane="122_4way_56to4way_55_0" arrivalPos="85.60" arrivalSpeed="5.35" duration="12.00" routeLength="80.50" waitingTime="0.00" waitingCount="0" stopTime="0.00" timeLoss="6.37" rerouteNo="0" devices="tripinfo_311" vType="DEFAULT_VEHTYPE" speedFactor="1.04" vaporized=""/>
    <tripinfo id="313" depart="58.00" departLane="12_3way_26to3way_35_0" departPos="5.10" departSpeed="0.00" departDelay="0.06" arrival="70.00" arrivalLane="12_3way_26to3way_35_0" arrivalPos="85.60" arrivalSpeed="7.42" duration="12.00" routeLength="80.50" waitingTime="0.00" waitingCount="0" stopTime="0.00" timeLoss="5.29" rerouteNo="0" devices="tripinfo_313" vType="DEFAULT_VEHTYPE" speedFactor="0.90" vaporized=""/>
    <tripinfo id="96" depart="18.00" departLane="45_3way_74to3way_75_0" departPos="5.10" departSpeed="0.00" departDelay="0.23" arrival="71.00" arrivalLane="47_3way_75to3way_76_0" arrivalPos="85.60" arrivalSpeed="6.39" duration="53.00" routeLength="180.50" waitingTime="30.00" waitingCount="1" stopTime="0.00" timeLoss="38.90" rerouteNo="0" devices="tripinfo_96" vType="DEFAULT_VEHTYPE" speedFactor="0.95" vaporized=""/>
    <tripinfo id="327" depart="61.00" departLane="84_4way_28to4way_37_0" departPos="5.10" departSpeed="0.00" departDelay="0.47" arrival="71.00" arrivalLane="84_4way_28to4way_37_0" arrivalPos="85.60" arrivalSpeed="12.31" duration="10.00" routeLength="80.50" waitingTime="0.00" waitingCount="0" stopTime="0.00" timeLoss="3.06" rerouteNo="0" devices="tripinfo_327" vType="DEFAULT_VEHTYPE" speedFactor="0.95" vaporized=""/>
    <tripinfo id="14" depart="3.00" departLane="97_4way_37to4way_46_0" departPos="5.10" departSpeed="0.00" departDelay="0.41" arrival="74.00" arrivalLane="122_4way_55to4way_56_0" arrivalPos="85.60" arrivalSpeed="8.93" duration="71.00" routeLength="275.13" waitingTime="38.00" waitingCount="1" stopTime="0.00" timeLoss="49.48" rerouteNo="0" devices="tripinfo_14" vType="DEFAULT_VEHTYPE" speedFactor="0.95" vaporized=""/>
    <tripinfo id="335" depart="64.00" departLane="21_3way_36to4way_37_0" departPos="5.10" departSpeed="0.00" departDelay="1.99" arrival="74.00" arrivalLane="21_3way_36to4way_37_0" arrivalPos="85.60" arrivalSpeed="12.52" duration="10.00" routeLength="80.50" waitingTime="0.00" waitingCount="0" stopTime="0.00" timeLoss="3.28" rerouteNo="0" devices="tripinfo_335" vType="DEFAULT_VEHTYPE" speedFactor="0.90" vaporized=""/>
    <tripinfo id="103" depart="20.00" departLane="51_3way_77to3way_78_0" departPos="5.10" departSpeed="0.00" departDelay="0.93" arrival="75.00" arrivalLane="55_3way_79to4way_70_0" arrivalPos="85.60" arrivalSpeed="7.69" duration="55.00" routeLength="275.13" waitingTime="23.00" waitingCount="1" stopTime="0.00" timeLoss="36.58" rerouteNo="0" devices="tripinfo_103" vType="DEFAULT_VEHTYPE" speedFactor="1.15" vaporized=""/>
    <tripinfo id="184" depart="35.00" departLane="106_4way_43to4way_42_0" departPos="5.10" departSpeed="0.00" departDelay="0.94" arrival="75.00" arrivalLane="118_4way_50to4way_59_0" arrivalPos="85.60" arrivalSpeed="9.80" duration="40.00" routeLength="375.13" waitingTime="1.00" waitingCount="1" stopTime="0.00" timeLoss="12.74" rerouteNo="0" devices="tripinfo_184" vType="DEFAULT_VEHTYPE" speedFactor="1.02" vaporized=""/>
    <tripinfo id="65" depart="13.00" departLane="88_4way_39to4way_30_0" departPos="5.10" departSpeed="0.00" departDelay="0.97" arrival="76.00" arrivalLane="75_4way_30to4way_21_0" arrivalPos="85.60" arrivalSpeed="16.27" duration="63.00" routeLength="180.50" waitingTime="40.00" waitingCount="1" stopTime="0.00" timeLoss="51.68" rerouteNo="0" devices="tripinfo_65" vType="DEFAULT_VEHTYPE" speedFactor="1.20" vaporized=""/>
    <tripinfo id="207" depart="39.00" departLane="85_4way_29to4way_30_0" departPos="5.10" departSpeed="0.00" departDelay="0.68" arrival="76.00" arrivalLane="64_4way_22to4way_13_0" arrivalPos="85.60" arrivalSpeed="16.18" duration="37.00" routeLength="375.13" waitingTime="1.00" waitingCount="1" stopTime="0.00" timeLoss="14.13" rerouteNo="0" devices="tripinfo_207" vType="DEFAULT_VEHTYPE" speedFactor="1.24" vaporized=""/>
    <tripinfo id="249" depart="47.00" departLane="44_4way_64to3way_73_0" departPos="5.10" departSpeed="0.00" departDelay="0.91" arrival="76.00" arrivalLane="43_3way_73to3way_74_0" arrivalPos="85.60" arrivalSpeed="14.67" duration="29.00" routeLength="175.13" waitingTime="8.00" waitingCount="1" stopTime="0.00" timeLoss="17.26" rerouteNo="0" devices="tripinfo_249" vType="DEFAULT_VEHTYPE" speedFactor="1.12" vaporized=""/>
    <tripinfo id="318" depart="59.00" departLane="77_4way_22to4way_31_0" departPos="5.10" departSpeed="0.00" departDelay="0.14" arrival="76.00" arrivalLane="90_4way_31to4way_40_0" arrivalPos="85.60" arrivalSpeed="13.05" duration="17.00" routeLength="180.50" waitingTime="0.00" waitingCount="0" stopTime="0.00" timeLoss="3.28" rerouteNo="0" devices="tripinfo_318" vType="DEFAULT_VEHTYPE" speedFactor="1.01" vaporized=""/>
    <tripinfo id="352" depart="66.00" departLane="122_4way_56to4way_55_0" departPos="5.10" departSpeed="0.00" departDelay="0.84" arrival="76.00" arrivalLane="122_4way_56to4way_55_0" arrivalPos="85.60" arrivalSpeed="14.95" duration="10.00" routeLength="80.50" waitingTime="0.00" waitingCount="0" stopTime="0.00" timeLoss="4.12" rerouteNo="0" devices="tripinfo_352" vType="DEFAULT_VEHTYPE" speedFactor="1.10" vaporized=""/>
    <tripinfo id="35" depart="7.00" departLane="23_3way_4to4way_13_0" departPos="5.10" departSpeed="0.00" departDelay="0.52" arrival="77.00" arrivalLane="63_4way_13to4way_14_0" arrivalPos="85.60" arrivalSpeed="12.88" duration="70.00" routeLength="175.13" waitingTime="49.00" waitingCount="1" stopTime="0.00" timeLoss="55.27" rerouteNo="0" devices="tripinfo_35" vType="DEFAULT_VEHTYPE" speedFactor="0.94" vaporized=""/>
    <tripinfo id="169" depart="32.00" departLane="27_3way_45to4way_46_0" departPos="5.10" departSpeed="0.00" departDelay="0.72" arrival="77.00" arrivalLane="109_4way_46to4way_47_0" arrivalPos="85.60" arrivalSpeed="14.48" duration="45.00" routeLength="180.50" waitingTime="22.00" waitingCount="1" stopTime="0.00" timeLoss="32.16" rerouteNo="0" devices="tripinfo_169" vType="DEFAULT_VEHTYPE" speedFactor="1.09" vaporized=""/>
    <tripinfo id="196" depart="37.00" departLane="19_4way_34to3way_35_0" departPos="5.10" departSpeed="0.00" departDelay="0.72" arrival="77.00" arrivalLane="4_3way_26to3way_17_0" arrivalPos="85.60" arrivalSpeed="14.65" duration="40.00" routeLength="275.13" waitingTime="8.00" waitingCount="1" stopTime="0.00" timeLoss="20.33" rerouteNo="0" devices="tripinfo_196" vType="DEFAULT_VEHTYPE" speedFactor="1.07" vaporized=""/>
    <tripinfo id="288" depart="54.00" departLane="22_3way_5to3way_4_0" departPos="5.10" departSpeed="0.00" departDelay="0.69" arrival="77.00" arrivalLane="22_3way_5to3way_4_0" arrivalPos="85.60" arrivalSpeed="9.86" duration="23.00" routeLength="80.50" waitingTime="7.00" waitingCount="1" stopTime="0.00" timeLoss="15.88" rerouteNo="0" devices="tripinfo_288" vType="DEFAULT_VEHTYPE" speedFactor="0.82" vaporized=""/>
    <tripinfo id="31" depart="8.00" departLane="6_3way_17to4way_16_0" departPos="5.10" departSpeed="0.00" departDelay="2.26" arrival="78.00" arrivalLane="67_4way_16to4way_15_0" arrivalPos="85.60" arrivalSpeed="15.21" duration="70.00" routeLength="180.50" waitingTime="48.00" waitingCount="1" stopTime="0.00" timeLoss="58.05" rerouteNo="0" devices="tripinfo_31" vType="DEFAULT_VEHTYPE" speedFactor="1.11" vaporized=""/>
    <tripinfo id="271" depart="51.00" departLane="122_4way_56to4way_55_0" departPos="5.10" departSpeed="0.00" departDelay="0.84" arrival="78.00" arrivalLane="123_4way_55to4way_64_0" arrivalPos="85.60" arrivalSpeed="8.11" duration="27.00" routeLength="175.13" waitingTime="5.00" waitingCount="1" stopTime="0.00" timeLoss="12.35" rerouteNo="0" devices="tripinfo_271" vType="DEFAULT_VEHTYPE" speedFactor="0.90" vaporized=""/>
    <tripinfo id="70" depart="13.00" departLane="129_4way_58to4way_67_0" departPos="5.10" departSpeed="0.00" departDelay="0.04" arrival="79.00" arrivalLane="138_4way_67to4way_68_0" arrivalPos="85.60" arrivalSpeed="9.60" duration="66.00" routeLength="175.13" waitingTime="42.00" waitingCount="1" stopTime="0.00" timeLoss="47.88" rerouteNo="0" devices="tripinfo_70" vType="DEFAULT_VEHTYPE" speedFactor="0.75" vaporized=""/>
    <tripinfo id="255" depart="48.00" departLane="39_3way_63to4way_64_0" departPos="5.10" departSpeed="0.00" departDelay="0.80" arrival="79.00" arrivalLane="135_4way_64to4way_65_0" arrivalPos="85.60" arrivalSpeed="10.35" duration="31.00" routeLength="180.50" waitingTime="3.00" waitingCount="1" stopTime="0.00" timeLoss="13.04" rerouteNo="0" devices="tripinfo_255" vType="DEFAULT_VEHTYPE" speedFactor="0.76" vaporized=""/>
    <tripinfo id="372" depart="69.00" departLane="3_3way_1to4way_10_0" departPos="5.10" departSpeed="0.00" departDelay="0.14" arrival="79.00" arrivalLane="3_3way_1to4way_10_0" arrivalPos="85.60" arrivalSpeed="12.91" duration="10.00" routeLength="80.50" waitingTime="0.00" waitingCount="0" stopTime="0.00" timeLoss="3.15" rerouteNo="0" devices="tripinfo_372" vType="DEFAULT_VEHTYPE" speedFactor="0.96" vaporized=""/>
    <tripinfo id="202" depart="41.00" departLane="45_3way_74to3way_75_0" departPos="5.10" departSpeed="0.00" departDelay="3.61" arrival="80.00" arrivalLane="47_3way_75to3way_76_0" arrivalPos="85.60" arrivalSpeed="10.44" duration="39.00" routeLength="180.50" waitingTime="13.00" waitingCount="1" stopTime="0.00" timeLoss="24.11" rerouteNo="0" devices="tripinfo_202" vType="DEFAULT_VEHTYPE" speedFactor="0.90" vaporized=""/>
    <tripinfo id="263" depart="49.00" departLane="103_4way_49to4way_40_0" departPos="5.10" departSpeed="0.00" departDelay="0.32" arrival="82.00" arrivalLane="87_4way_31to4way_30_0" arrivalPos="85.60" arrivalSpeed="12.79" duration="33.00" routeLength="275.13" waitingTime="1.00" waitingCount="1" stopTime="0.00" timeLoss="11.66" rerouteNo="0" devices="tripinfo_263" vType="DEFAULT_VEHTYPE" speedFactor="0.99" vaporized=""/>
    <tripinfo id="113" depart="21.00" departLane="49_3way_77to3way_76_0" departPos="5.10" departSpeed="0.00" departDelay="0.08" arrival="83.00" arrivalLane="45_3way_75to3way_74_0" arrivalPos="85.60" arrivalSpeed="14.51" duration="62.00" routeLength="280.50" waitingTime="33.00" waitingCount="1" stopTime="0.00" timeLoss="43.44" rerouteNo="0" devices="tripinfo_113" vType="DEFAULT_VEHTYPE" speedFactor="1.10" vaporized=""/>
    <tripinfo id="136" depart="26.00" departLane="130_4way_59to4way_60_0" departPos="5.10" departSpeed="0.00" departDelay="0.83" arrival="83.00" arrivalLane="95_4way_43to4way_34_0" arrivalPos="85.60" arrivalSpeed="9.26" duration="57.00" routeLength="475.13" waitingTime="7.00" waitingCount="1" stopTime="0.00" timeLoss="22.43" rerouteNo="0" devices="tripinfo_136" vType="DEFAULT_VEHTYPE" speedFactor="1.01" vaporized=""/>
    <tripinfo id="219" depart="41.00" departLane="140_4way_69to4way_70_0" departPos="5.10" departSpeed="0.00" departDelay="0.46" arrival="83.00" arrivalLane="121_4way_61to4way_52_0" arrivalPos="85.60" arrivalSpeed="13.41" duration="42.00" routeLength="275.13" waitingTime="10.00" waitingCount="1" stopTime="0.00" timeLoss="22.09" rerouteNo="0" devices="tripinfo_219" vType="DEFAULT_VEHTYPE" speedFactor="1.03" vaporized=""/>
    <tripinfo id="394" depart="73.00" departLane="23_4way_13to3way_4_0" departPos="5.10" departSpeed="0.00" departDelay="0.07" arrival="83.00" arrivalLane="23_4way_13to3way_4_0" arrivalPos="85.60" arrivalSpeed="12.82" duration="10.00" routeLength="80.50" waitingTime="0.00" waitingCount="0" stopTime="0.00" timeLoss="3.61" rerouteNo="0" devices="tripinfo_394" vType="DEFAULT_VEHTYPE" speedFactor="1.02" vaporized=""/>
    <tripinfo id="110" depart="21.00" departLane="108_4way_43to4way_52_0" departPos="5.10" departSpeed="0.00" departDelay="0.64" arrival="84.00" arrivalLane="55_4way_70to3way_79_0" arrivalPos="85.60" arrivalSpeed="14.22" duration="63.00" routeLength="380.50" waitingTime="27.00" waitingCount="1" stopTime="0.00" timeLoss="36.38" rerouteNo="0" devices="tripinfo_110" vType="DEFAULT_VEHTYPE" speedFactor="1.05" vaporized=""/>
    <tripinfo id="126" depart="24.00" departLane="88_4way_39to4way_30_0" departPos="5.10" departSpeed="0.00" departDelay="0.68" arrival="86.00" arrivalLane="62_4way_21to4way_12_0" arrivalPos="85.60" arrivalSpeed="13.47" duration="62.00" routeLength="280.50" waitingTime="32.00" waitingCount="1" stopTime="0.00" timeLoss="41.70" rerouteNo="0" devices="tripinfo_126" vType="DEFAULT_VEHTYPE" speedFactor="1.01" vaporized=""/>
    <tripinfo id="233" depart="44.00" departLane="119_4way_52to4way_51_0" departPos="5.10" departSpeed="0.00" departDelay="0.87" arrival="86.00" arrivalLane="115_4way_50to4way_49_0" arrivalPos="85.60" arrivalSpeed="6.53" duration="42.00" routeLength="280.50" waitingTime="4.00" waitingCount="1" stopTime="0.00" timeLoss="17.68" rerouteNo="0" devices="tripinfo_233" vType="DEFAULT_VEHTYPE" speedFactor="0.83" vaporized=""/>
    <tripinfo id="361" depart="67.00" departLane="100_4way_40to4way_39_0" departPos="5.10" departSpeed="0.00" departDelay="0.18" arrival="86.00" arrivalLane="98_4way_39to4way_38_0" arrivalPos="85.60" arrivalSpeed="11.33" duration="19.00" routeLength="180.50" waitingTime="0.00" waitingCount="0" stopTime="0.00" timeLoss="3.64" rerouteNo="0" devices="tripinfo_361" vType="DEFAULT_VEHTYPE" speedFactor="0.87" vaporized=""/>
    <tripinfo id="410" depart="76.00" departLane="63_4way_13to4way_14_0" departPos="5.10" departSpeed="0.00" departDelay="0.11" arrival="86.00" arrivalLane="63_4way_13to4way_14_0" arrivalPos="85.60" arrivalSpeed="15.68" duration="10.00" routeLength="80.50" waitingTime="0.00" waitingCount="0" stopTime="0.00" timeLoss="4.44" rerouteNo="0" devices="tripinfo_410" vType="DEFAULT_VEHTYPE" speedFactor="1.21" vaporized=""/>
    <tripinfo id="243" depart="45.00" departLane="83_4way_28to4way_29_0" departPos="5.10" departSpeed="0.00" departDelay="0.02" arrival="87.00" arrivalLane="60_4way_20to4way_11_0" arrivalPos="85.60" arrivalSpeed="12.74" duration="42.00" routeLength="275.13" waitingTime="11.00" waitingCount="1" stopTime="0.00" timeLoss="19.32" rerouteNo="0" devices="tripinfo_243" vType="DEFAULT_VEHTYPE" speedFactor="0.94" vaporized=""/>
    <tripinfo id="167" depart="31.00" departLane="16_3way_4to3way_3_0" departPos="5.10" departSpeed="0.00" departDelay="0.09" arrival="88.00" arrivalLane="11_3way_2to4way_11_0" arrivalPos="85.60" arrivalSpeed="11.46" duration="57.00" routeLength="275.13" waitingTime="24.00" waitingCount="1" stopTime="0.00" timeLoss="33.07" rerouteNo="0" devices="tripinfo_167" vType="DEFAULT_VEHTYPE" speedFactor="0.85" vaporized=""/>
    <tripinfo id="424" depart="79.00" departLane="82_4way_25to4way_34_0" departPos="5.10" departSpeed="0.00" departDelay="0.52" arrival="88.00" arrivalLane="82_4way_25to4way_34_0" arrivalPos="85.60" arrivalSpeed="13.64" duration="9.00" routeLength="80.50" waitingTime="0.00" waitingCount="0" stopTime="0.00" timeLoss="2.84" rerouteNo="0" devices="tripinfo_424" vType="DEFAULT_VEHTYPE" speedFactor="0.98" vaporized=""/>
    <tripinfo id="254" depart="48.00" departLane="107_4way_51to4way_42_0" departPos="5.10" departSpeed="0.00" departDelay="0.98" arrival="89.00" arrivalLane="102_4way_41to4way_40_0" arrivalPos="85.60" arrivalSpeed="11.28" duration="41.00" routeLength="275.13" waitingTime="8.00" waitingCount="1" stopTime="0.00" timeLoss="17.16" rerouteNo="0" devices="tripinfo_254" vType="DEFAULT_VEHTYPE" speedFactor="0.90" vaporized=""/>
    <tripinfo id="363" depart="68.00" departLane="30_3way_62to3way_53_0" departPos="5.10" departSpeed="0.00" departDelay="0.81" arrival="89.00" arrivalLane="18_3way_44to3way_35_0" arrivalPos="85.60" arrivalSpeed="16.46" duration="21.00" routeLength="280.50" waitingTime="0.00" waitingCount="0" stopTime="0.00" timeLoss="3.99" rerouteNo="0" devices="tripinfo_363" vType="DEFAULT_VEHTYPE" speedFactor="1.21" vaporized=""/>