<?xml version="1.0" encoding="UTF-8"?>

<!-- generated on 2023-07-28 06:46:51 by Eclipse SUMO sumo Version 1.12.0
<configuration xmlns:xsi="http://www.w3.org/2001/XMLSchema-instance" xsi:noNamespaceSchemaLocation="http://sumo.dlr.de/xsd/sumoConfiguration.xsd">

    <input>
        <net-file value="../../data_generation/sq.net.xml"/>
        <route-files value="../../data_generation/sq.rou.xml"/>
    </input>

    <output>
        <tripinfo-output value="tripinfo.xml"/>
        <statistic-output value="statistic.xml"/>
    </output>

    <time>
        <begin value="0"/>
        <end value="3600"/>
    </time>

    <processing>
        <time-to-teleport value="-1"/>
    </processing>

    <traci_server>
        <remote-port value="51603"/>
    </traci_server>

    <random_number>
        <seed value="1395"/>
    </random_number>

    <gui_only>
        <gui-settings-file value="../../data_generation/view_HY_0402.xml"/>
    </gui_only>

</configuration>
-->

<tripinfos xmlns:xsi="http://www.w3.org/2001/XMLSchema-instance" xsi:noNamespaceSchemaLocation="http://sumo.dlr.de/xsd/tripinfo_file.xsd">
    <tripinfo id="7" depart="2.00" departLane="32_3way_6to3way_5_0" departPos="5.10" departSpeed="0.00" departDelay="0.54" arrival="11.00" arrivalLane="32_3way_6to3way_5_0" arrivalPos="85.60" arrivalSpeed="12.93" duration="9.00" routeLength="80.50" waitingTime="0.00" waitingCount="0" stopTime="0.00" timeLoss="2.88" rerouteNo="0" devices="tripinfo_7" vType="DEFAULT_VEHTYPE" speedFactor="0.95" vaporized=""/>
    <tripinfo id="9" depart="2.00" departLane="99_4way_45to4way_44_0" departPos="5.10" departSpeed="0.00" departDelay="0.12" arrival="12.00" arrivalLane="99_4way_45to4way_44_0" arrivalPos="85.60" arrivalSpeed="11.50" duration="10.00" routeLength="80.50" waitingTime="0.00" waitingCount="0" stopTime="0.00" timeLoss="3.09" rerouteNo="0" devices="tripinfo_9" vType="DEFAULT_VEHTYPE" speedFactor="0.91" vaporized=""/>
    <tripinfo id="13" depart="3.00" departLane="19_4way_30to3way_31_0" departPos="5.10" departSpeed="0.00" departDelay="0.29" arrival="12.00" arrivalLane="19_4way_30to3way_31_0" arrivalPos="85.60" arrivalSpeed="12.71" duration="9.00" routeLength="80.50" waitingTime="0.00" waitingCount="0" stopTime="0.00" timeLoss="2.86" rerouteNo="0" devices="tripinfo_13" vType="DEFAULT_VEHTYPE" speedFactor="0.98" vaporized=""/>
    <tripinfo id="20" depart="5.00" departLane="15_4way_25to3way_24_0" departPos="5.10" departSpeed="0.00" departDelay="0.83" arrival="14.00" arrivalLane="15_4way_25to3way_24_0" arrivalPos="85.60" arrivalSpeed="11.79" duration="9.00" routeLength="80.50" waitingTime="0.00" waitingCount="0" stopTime="0.00" timeLoss="2.34" rerouteNo="0" devices="tripinfo_20" vType="DEFAULT_VEHTYPE" speedFactor="0.89" vaporized=""/>
    <tripinfo id="18" depart="7.00" departLane="53_4way_19to4way_11_0" departPos="5.10" departSpeed="0.00" departDelay="3.25" arrival="17.00" arrivalLane="53_4way_19to4way_11_0" arrivalPos="85.60" arrivalSpeed="13.26" duration="10.00" routeLength="80.50" waitingTime="0.00" waitingCount="0" stopTime="0.00" timeLoss="3.45" rerouteNo="0" devices="tripinfo_18" vType="DEFAULT_VEHTYPE" speedFactor="0.96" vaporized=""/>
    <tripinfo id="66" depart="14.00" departLane="96_4way_50to4way_42_0" departPos="5.10" departSpeed="0.00" departDelay="0.25" arrival="24.00" arrivalLane="96_4way_50to4way_42_0" arrivalPos="85.60" arrivalSpeed="11.68" duration="10.00" routeLength="80.50" waitingTime="0.00" waitingCount="0" stopTime="0.00" timeLoss="3.06" rerouteNo="0" devices="tripinfo_66" vType="DEFAULT_VEHTYPE" speedFactor="0.86" vaporized=""/>
    <tripinfo id="71" depart="15.00" departLane="54_4way_12to4way_13_0" departPos="5.10" departSpeed="0.00" departDelay="0.21" arrival="24.00" arrivalLane="54_4way_12to4way_13_0" arrivalPos="85.60" arrivalSpeed="15.28" duration="9.00" routeLength="80.50" waitingTime="0.00" waitingCount="0" stopTime="0.00" timeLoss="3.24" rerouteNo="0" devices="tripinfo_71" vType="DEFAULT_VEHTYPE" speedFactor="1.13" vaporized=""/>
    <tripinfo id="10" depart="3.00" departLane="107_4way_52to4way_53_0" departPos="5.10" departSpeed="0.00" departDelay="0.92" arrival="29.00" arrivalLane="103_4way_54to4way_46_0" arrivalPos="85.60" arrivalSpeed="14.15" duration="26.00" routeLength="275.13" waitingTime="0.00" waitingCount="0" stopTime="0.00" timeLoss="6.18" rerouteNo="0" devices="tripinfo_10" vType="DEFAULT_VEHTYPE" speedFactor="1.04" vaporized=""/>
    <tripinfo id="17" depart="4.00" departLane="53_4way_19to4way_11_0" departPos="5.10" departSpeed="0.00" departDelay="0.46" arrival="30.00" arrivalLane="10_3way_3to3way_2_0" arrivalPos="85.60" arrivalSpeed="13.18" duration="26.00" routeLength="275.13" waitingTime="0.00" waitingCount="0" stopTime="0.00" timeLoss="6.13" rerouteNo="0" devices="tripinfo_17" vType="DEFAULT_VEHTYPE" speedFactor="1.04" vaporized=""/>
    <tripinfo id="23" depart="5.00" departLane="14_3way_24to3way_32_0" departPos="5.10" departSpeed="0.00" departDelay="0.21" arrival="32.00" arrivalLane="26_3way_40to3way_48_0" arrivalPos="85.60" arrivalSpeed="11.54" duration="27.00" routeLength="280.50" waitingTime="0.00" waitingCount="0" stopTime="0.00" timeLoss="3.57" rerouteNo="0" devices="tripinfo_23" vType="DEFAULT_VEHTYPE" speedFactor="0.87" vaporized=""/>
    <tripinfo id="72" depart="15.00" departLane="13_4way_22to3way_23_0" departPos="5.10" departSpeed="0.00" departDelay="0.00" arrival="33.00" arrivalLane="4_3way_23to3way_15_0" arrivalPos="85.60" arrivalSpeed="14.95" duration="18.00" routeLength="175.13" waitingTime="0.00" waitingCount="0" stopTime="0.00" timeLoss="5.85" rerouteNo="0" devices="tripinfo_72" vType="DEFAULT_VEHTYPE" speedFactor="1.15" vaporized=""/>
    <tripinfo id="67" depart="14.00" departLane="84_4way_35to4way_34_0" departPos="5.10" departSpeed="0.00" departDelay="0.04" arrival="34.00" arrivalLane="85_4way_34to4way_42_0" arrivalPos="85.60" arrivalSpeed="12.20" duration="20.00" routeLength="175.13" waitingTime="0.00" waitingCount="0" stopTime="0.00" timeLoss="4.57" rerouteNo="0" devices="tripinfo_67" vType="DEFAULT_VEHTYPE" speedFactor="0.88" vaporized=""/>
    <tripinfo id="118" depart="25.00" departLane="39_4way_50to3way_58_0" departPos="5.10" departSpeed="0.00" departDelay="0.42" arrival="34.00" arrivalLane="39_4way_50to3way_58_0" arrivalPos="85.60" arrivalSpeed="13.61" duration="9.00" routeLength="80.50" waitingTime="0.00" waitingCount="0" stopTime="0.00" timeLoss="3.22" rerouteNo="0" devices="tripinfo_118" vType="DEFAULT_VEHTYPE" speedFactor="1.05" vaporized=""/>
    <tripinfo id="125" depart="27.00" departLane="78_4way_28to4way_36_0" departPos="5.10" departSpeed="0.00" departDelay="0.96" arrival="37.00" arrivalLane="78_4way_28to4way_36_0" arrivalPos="85.60" arrivalSpeed="12.62" duration="10.00" routeLength="80.50" waitingTime="0.00" waitingCount="0" stopTime="0.00" timeLoss="2.98" rerouteNo="0" devices="tripinfo_125" vType="DEFAULT_VEHTYPE" speedFactor="0.95" vaporized=""/>
    <tripinfo id="126" depart="27.00" departLane="42_3way_6to4way_14_0" departPos="5.10" departSpeed="0.00" departDelay="0.75" arrival="37.00" arrivalLane="42_3way_6to4way_14_0" arrivalPos="85.60" arrivalSpeed="13.27" duration="10.00" routeLength="80.50" waitingTime="0.00" waitingCount="0" stopTime="0.00" timeLoss="3.36" rerouteNo="0" devices="tripinfo_126" vType="DEFAULT_VEHTYPE" speedFactor="1.01" vaporized=""/>
    <tripinfo id="97" depart="21.00" departLane="40_3way_59to3way_60_0" departPos="5.10" departSpeed="0.00" departDelay="0.79" arrival="38.00" arrivalLane="43_3way_60to3way_61_0" arrivalPos="85.60" arrivalSpeed="14.40" duration="17.00" routeLength="180.50" waitingTime="0.00" waitingCount="0" stopTime="0.00" timeLoss="4.02" rerouteNo="0" devices="tripinfo_97" vType="DEFAULT_VEHTYPE" speedFactor="1.06" vaporized=""/>
    <tripinfo id="132" depart="28.00" departLane="39_4way_50to3way_58_0" departPos="5.10" departSpeed="0.00" departDelay="0.50" arrival="38.00" arrivalLane="39_4way_50to3way_58_0" arrivalPos="85.60" arrivalSpeed="10.82" duration="10.00" routeLength="80.50" waitingTime="0.00" waitingCount="0" stopTime="0.00" timeLoss="2.61" rerouteNo="0" devices="tripinfo_132" vType="DEFAULT_VEHTYPE" speedFactor="0.86" vaporized=""/>
    <tripinfo id="59" depart="13.00" departLane="50_4way_10to4way_18_0" departPos="5.10" departSpeed="0.00" departDelay="0.71" arrival="39.00" arrivalLane="64_4way_19to4way_20_0" arrivalPos="85.60" arrivalSpeed="13.71" duration="26.00" routeLength="275.13" waitingTime="0.00" waitingCount="0" stopTime="0.00" timeLoss="5.69" rerouteNo="0" devices="tripinfo_59" vType="DEFAULT_VEHTYPE" speedFactor="1.03" vaporized=""/>
    <tripinfo id="44" depart="10.00" departLane="95_4way_43to4way_42_0" departPos="5.10" departSpeed="0.00" departDelay="0.83" arrival="40.00" arrivalLane="27_4way_41to3way_40_0" arrivalPos="85.60" arrivalSpeed="10.57" duration="30.00" routeLength="280.50" waitingTime="0.00" waitingCount="0" stopTime="0.00" timeLoss="3.72" rerouteNo="0" devices="tripinfo_44" vType="DEFAULT_VEHTYPE" speedFactor="0.78" vaporized=""/>
    <tripinfo id="148" depart="33.00" departLane="92_4way_38to4way_46_0" departPos="5.10" departSpeed="0.00" departDelay="2.17" arrival="42.00" arrivalLane="92_4way_38to4way_46_0" arrivalPos="85.60" arrivalSpeed="14.50" duration="9.00" routeLength="80.50" waitingTime="0.00" waitingCount="0" stopTime="0.00" timeLoss="2.83" rerouteNo="0" devices="tripinfo_148" vType="DEFAULT_VEHTYPE" speedFactor="1.07" vaporized=""/>
    <tripinfo id="162" depart="34.00" departLane="98_4way_51to4way_43_0" departPos="5.10" departSpeed="0.00" departDelay="0.25" arrival="44.00" arrivalLane="98_4way_51to4way_43_0" arrivalPos="85.60" arrivalSpeed="12.28" duration="10.00" routeLength="80.50" waitingTime="0.00" waitingCount="0" stopTime="0.00" timeLoss="3.51" rerouteNo="0" devices="tripinfo_162" vType="DEFAULT_VEHTYPE" speedFactor="0.96" vaporized=""/>
    <tripinfo id="60" depart="13.00" departLane="76_4way_27to4way_35_0" departPos="5.10" departSpeed="0.00" departDelay="0.50" arrival="45.00" arrivalLane="90_4way_37to4way_38_0" arrivalPos="85.60" arrivalSpeed="14.59" duration="32.00" routeLength="375.13" waitingTime="0.00" waitingCount="0" stopTime="0.00" timeLoss="6.53" rerouteNo="0" devices="tripinfo_60" vType="DEFAULT_VEHTYPE" speedFactor="1.12" vaporized=""/>
    <tripinfo id="167" depart="35.00" departLane="39_3way_58to4way_50_0" departPos="5.10" departSpeed="0.00" departDelay="0.21" arrival="45.00" arrivalLane="39_3way_58to4way_50_0" arrivalPos="85.60" arrivalSpeed="11.43" duration="10.00" routeLength="80.50" waitingTime="0.00" waitingCount="0" stopTime="0.00" timeLoss="2.47" rerouteNo="0" devices="tripinfo_167" vType="DEFAULT_VEHTYPE" speedFactor="0.85" vaporized=""/>
    <tripinfo id="99" depart="21.00" departLane="105_4way_51to4way_50_0" departPos="5.10" departSpeed="0.00" departDelay="0.38" arrival="46.00" arrivalLane="31_4way_49to3way_48_0" arrivalPos="85.60" arrivalSpeed="12.50" duration="25.00" routeLength="280.50" waitingTime="0.00" waitingCount="0" stopTime="0.00" timeLoss="3.68" rerouteNo="0" devices="tripinfo_99" vType="DEFAULT_VEHTYPE" speedFactor="0.97" vaporized=""/>
    <tripinfo id="39" depart="9.00" departLane="48_4way_9to3way_8_0" departPos="5.10" departSpeed="0.00" departDelay="0.88" arrival="49.00" arrivalLane="20_3way_32to3way_40_0" arrivalPos="85.60" arrivalSpeed="13.62" duration="40.00" routeLength="475.13" waitingTime="0.00" waitingCount="0" stopTime="0.00" timeLoss="6.63" rerouteNo="0" devices="tripinfo_39" vType="DEFAULT_VEHTYPE" speedFactor="1.05" vaporized=""/>
    <tripinfo id="110" depart="23.00" departLane="106_4way_52to4way_51_0" departPos="5.10" departSpeed="0.00" departDelay="0.09" arrival="49.00" arrivalLane="39_4way_50to3way_58_0" arrivalPos="85.60" arrivalSpeed="14.48" duration="26.00" routeLength="275.13" waitingTime="0.00" waitingCount="0" stopTime="0.00" timeLoss="6.44" rerouteNo="0" devices="tripinfo_110" vType="DEFAULT_VEHTYPE" speedFactor="1.05" vaporized=""/>
    <tripinfo id="107" depart="23.00" departLane="8_3way_8to3way_16_0" departPos="5.10" departSpeed="0.00" departDelay="0.71" arrival="53.00" arrivalLane="20_3way_32to3way_40_0" arrivalPos="85.60" arrivalSpeed="14.48" duration="30.00" routeLength="380.50" waitingTime="0.00" waitingCount="0" stopTime="0.00" timeLoss="4.27" rerouteNo="0" devices="tripinfo_107" vType="DEFAULT_VEHTYPE" speedFactor="1.10" vaporized=""/>
    <tripinfo id="184" depart="39.00" departLane="76_4way_27to4way_35_0" departPos="5.10" departSpeed="0.00" departDelay="0.67" arrival="57.00" arrivalLane="86_4way_35to4way_36_0" arrivalPos="85.60" arrivalSpeed="13.20" duration="18.00" routeLength="175.13" waitingTime="0.00" waitingCount="0" stopTime="0.00" timeLoss="5.02" rerouteNo="0" devices="tripinfo_184" vType="DEFAULT_VEHTYPE" speedFactor="1.02" vaporized=""/>
    <tripinfo id="207" depart="48.00" departLane="103_4way_54to4way_46_0" departPos="5.10" departSpeed="0.00" departDelay="4.88" arrival="57.00" arrivalLane="103_4way_54to4way_46_0" arrivalPos="85.60" arrivalSpeed="16.45" duration="9.00" routeLength="80.50" waitingTime="0.00" waitingCount="0" stopTime="0.00" timeLoss="4.17" rerouteNo="0" devices="tripinfo_207" vType="DEFAULT_VEHTYPE" speedFactor="1.24" vaporized=""/>
    <tripinfo id="179" depart="38.00" departLane="82_4way_33to4way_34_0" departPos="5.10" departSpeed="0.00" departDelay="0.71" arrival="58.00" arrivalLane="74_4way_34to4way_26_0" arrivalPos="85.60" arrivalSpeed="13.28" duration="20.00" routeLength="175.13" waitingTime="0.00" waitingCount="0" stopTime="0.00" timeLoss="5.52" rerouteNo="0" devices="tripinfo_179" vType="DEFAULT_VEHTYPE" speedFactor="0.97" vaporized=""/>
    <tripinfo id="190" depart="40.00" departLane="56_4way_14to4way_13_0" departPos="5.10" departSpeed="0.00" departDelay="0.42" arrival="59.00" arrivalLane="57_4way_13to4way_21_0" arrivalPos="85.60" arrivalSpeed="14.34" duration="19.00" routeLength="175.13" waitingTime="0.00" waitingCount="0" stopTime="0.00" timeLoss="5.72" rerouteNo="0" devices="tripinfo_190" vType="DEFAULT_VEHTYPE" speedFactor="1.08" vaporized=""/>
    <tripinfo id="157" depart="33.00" departLane="74_4way_34to4way_26_0" departPos="5.10" departSpeed="0.00" departDelay="0.30" arrival="61.00" arrivalLane="59_4way_18to4way_17_0" arrivalPos="85.60" arrivalSpeed="12.01" duration="28.00" routeLength="275.13" waitingTime="0.00" waitingCount="0" stopTime="0.00" timeLoss="5.44" rerouteNo="0" devices="tripinfo_157" vType="DEFAULT_VEHTYPE" speedFactor="0.94" vaporized=""/>
    <tripinfo id="242" depart="52.00" departLane="39_4way_50to3way_58_0" departPos="5.10" departSpeed="0.00" departDelay="1.59" arrival="62.00" arrivalLane="39_4way_50to3way_58_0" arrivalPos="85.60" arrivalSpeed="12.73" duration="10.00" routeLength="80.50" waitingTime="0.00" waitingCount="0" stopTime="0.00" timeLoss="3.41" rerouteNo="0" devices="tripinfo_242" vType="DEFAULT_VEHTYPE" speedFactor="0.98" vaporized=""/>
    <tripinfo id="137" depart="29.00" departLane="107_4way_52to4way_53_0" departPos="5.10" departSpeed="0.00" departDelay="0.46" arrival="67.00" arrivalLane="81_4way_38to4way_30_0" arrivalPos="85.60" arrivalSpeed="15.26" duration="38.00" routeLength="475.13" waitingTime="0.00" waitingCount="0" stopTime="0.00" timeLoss="6.49" rerouteNo="0" devices="tripinfo_137" vType="DEFAULT_VEHTYPE" speedFactor="1.14" vaporized=""/>
    <tripinfo id="164" depart="35.00" departLane="107_4way_52to4way_53_0" departPos="5.10" departSpeed="0.00" departDelay="0.84" arrival="67.00" arrivalLane="28_3way_55to3way_47_0" arrivalPos="85.60" arrivalSpeed="14.53" duration="32.00" routeLength="375.13" waitingTime="0.00" waitingCount="0" stopTime="0.00" timeLoss="6.59" rerouteNo="0" devices="tripinfo_164" vType="DEFAULT_VEHTYPE" speedFactor="1.11" vaporized=""/>
    <tripinfo id="52" depart="14.00" departLane="96_4way_42to4way_50_0" departPos="5.10" departSpeed="0.00" departDelay="3.17" arrival="70.00" arrivalLane="96_4way_42to4way_50_0" arrivalPos="85.60" arrivalSpeed="5.26" duration="56.00" routeLength="80.50" waitingTime="42.00" waitingCount="1" stopTime="0.00" timeLoss="50.20" rerouteNo="0" devices="tripinfo_52" vType="DEFAULT_VEHTYPE" speedFactor="1.03" vaporized=""/>
    <tripinfo id="202" depart="43.00" departLane="61_4way_17to4way_9_0" departPos="5.10" departSpeed="0.00" departDelay="0.92" arrival="70.00" arrivalLane="3_4way_9to3way_1_0" arrivalPos="85.60" arrivalSpeed="4.87" duration="27.00" routeLength="180.50" waitingTime="3.00" waitingCount="1" stopTime="0.00" timeLoss="12.44" rerouteNo="0" devices="tripinfo_202" vType="DEFAULT_VEHTYPE" speedFactor="0.90" vaporized=""/>
    <tripinfo id="25" depart="6.00" departLane="6_3way_15to4way_14_0" departPos="5.10" departSpeed="0.00" departDelay="0.79" arrival="73.00" arrivalLane="103_4way_46to4way_54_0" arrivalPos="85.60" arrivalSpeed="7.92" duration="67.00" routeLength="575.13" waitingTime="10.00" waitingCount="1" stopTime="0.00" timeLoss="22.42" rerouteNo="0" devices="tripinfo_25" vType="DEFAULT_VEHTYPE" speedFactor="0.95" vaporized=""/>
    <tripinfo id="104" depart="22.00" departLane="45_3way_61to3way_62_0" departPos="5.10" departSpeed="0.00" departDelay="0.34" arrival="73.00" arrivalLane="47_3way_62to4way_54_0" arrivalPos="85.60" arrivalSpeed="7.79" duration="51.00" routeLength="175.13" waitingTime="26.00" waitingCount="1" stopTime="0.00" timeLoss="36.54" rerouteNo="0" devices="tripinfo_104" vType="DEFAULT_VEHTYPE" speedFactor="0.95" vaporized=""/>
    <tripinfo id="131" depart="31.00" departLane="100_4way_52to4way_44_0" departPos="5.10" departSpeed="0.00" departDelay="3.71" arrival="73.00" arrivalLane="97_4way_44to4way_43_0" arrivalPos="85.60" arrivalSpeed="8.85" duration="42.00" routeLength="175.13" waitingTime="15.00" waitingCount="1" stopTime="0.00" timeLoss="25.03" rerouteNo="0" devices="tripinfo_131" vType="DEFAULT_VEHTYPE" speedFactor="0.82" vaporized=""/>
    <tripinfo id="156" depart="33.00" departLane="44_3way_60to4way_52_0" departPos="5.10" departSpeed="0.00" departDelay="0.50" arrival="75.00" arrivalLane="97_4way_44to4way_43_0" arrivalPos="85.60" arrivalSpeed="11.36" duration="42.00" routeLength="275.13" waitingTime="6.00" waitingCount="1" stopTime="0.00" timeLoss="18.97" rerouteNo="0" devices="tripinfo_156" vType="DEFAULT_VEHTYPE" speedFactor="0.91" vaporized=""/>
    <tripinfo id="204" depart="46.00" departLane="40_3way_59to3way_60_0" departPos="5.10" departSpeed="0.00" departDelay="3.51" arrival="75.00" arrivalLane="43_3way_60to3way_61_0" arrivalPos="85.60" arrivalSpeed="9.52" duration="29.00" routeLength="180.50" waitingTime="4.00" waitingCount="1" stopTime="0.00" timeLoss="16.89" rerouteNo="0" devices="tripinfo_204" vType="DEFAULT_VEHTYPE" speedFactor="1.12" vaporized=""/>
    <tripinfo id="315" depart="66.00" departLane="4_3way_15to3way_23_0" departPos="5.10" departSpeed="0.00" departDelay="0.38" arrival="75.00" arrivalLane="4_3way_15to3way_23_0" arrivalPos="85.60" arrivalSpeed="12.55" duration="9.00" routeLength="80.50" waitingTime="0.00" waitingCount="0" stopTime="0.00" timeLoss="2.54" rerouteNo="0" devices="tripinfo_315" vType="DEFAULT_VEHTYPE" speedFactor="0.93" vaporized=""/>
    <tripinfo id="45" depart="10.00" departLane="55_4way_12to4way_20_0" departPos="5.10" departSpeed="0.00" departDelay="0.63" arrival="76.00" arrivalLane="13_4way_22to3way_23_0" arrivalPos="85.60" arrivalSpeed="13.68" duration="66.00" routeLength="375.13" waitingTime="27.00" waitingCount="1" stopTime="0.00" timeLoss="38.48" rerouteNo="0" devices="tripinfo_45" vType="DEFAULT_VEHTYPE" speedFactor="1.00" vaporized=""/>
    <tripinfo id="53" depart="12.00" departLane="90_4way_38to4way_37_0" departPos="5.10" departSpeed="0.00" departDelay="0.96" arrival="76.00" arrivalLane="46_4way_53to3way_61_0" arrivalPos="85.60" arrivalSpeed="17.11" duration="64.00" routeLength="375.13" waitingTime="27.00" waitingCount="1" stopTime="0.00" timeLoss="42.00" rerouteNo="0" devices="tripinfo_53" vType="DEFAULT_VEHTYPE" speedFactor="1.27" vaporized=""/>
    <tripinfo id="86" depart="18.00" departLane="46_3way_61to4way_53_0" departPos="5.10" departSpeed="0.00" departDelay="0.09" arrival="76.00" arrivalLane="107_4way_53to4way_52_0" arrivalPos="85.60" arrivalSpeed="13.58" duration="58.00" routeLength="175.13" waitingTime="36.00" waitingCount="1" stopTime="0.00" timeLoss="45.31" rerouteNo="0" devices="tripinfo_86" vType="DEFAULT_VEHTYPE" speedFactor="1.06" vaporized=""/>
    <tripinfo id="50" depart="11.00" departLane="81_4way_38to4way_30_0" departPos="5.10" departSpeed="0.00" departDelay="0.58" arrival="77.00" arrivalLane="77_4way_29to4way_28_0" arrivalPos="85.60" arrivalSpeed="13.63" duration="66.00" routeLength="275.13" waitingTime="34.00" waitingCount="1" stopTime="0.00" timeLoss="45.66" rerouteNo="0" devices="tripinfo_50" vType="DEFAULT_VEHTYPE" speedFactor="1.01" vaporized=""/>
    <tripinfo id="117" depart="25.00" departLane="72_4way_33to4way_25_0" departPos="5.10" departSpeed="0.00" departDelay="0.63" arrival="77.00" arrivalLane="9_4way_17to3way_16_0" arrivalPos="85.60" arrivalSpeed="11.97" duration="52.00" routeLength="275.13" waitingTime="21.00" waitingCount="1" stopTime="0.00" timeLoss="29.50" rerouteNo="0" devices="tripinfo_117" vType="DEFAULT_VEHTYPE" speedFactor="0.91" vaporized=""/>
    <tripinfo id="216" depart="45.00" departLane="51_4way_9to4way_10_0" departPos="5.10" departSpeed="0.00" departDelay="0.01" arrival="77.00" arrivalLane="52_4way_11to4way_12_0" arrivalPos="85.60" arrivalSpeed="15.02" duration="32.00" routeLength="280.50" waitingTime="2.00" waitingCount="1" stopTime="0.00" timeLoss="12.87" rerouteNo="0" devices="tripinfo_216" vType="DEFAULT_VEHTYPE" speedFactor="1.10" vaporized=""/>
    <tripinfo id="290" depart="61.00" departLane="16_3way_4to3way_3_0" departPos="5.10" departSpeed="0.00" departDelay="0.59" arrival="77.00" arrivalLane="16_3way_4to3way_3_0" arrivalPos="85.60" arrivalSpeed="10.49" duration="16.00" routeLength="80.50" waitingTime="0.00" waitingCount="0" stopTime="0.00" timeLoss="10.66" rerouteNo="0" devices="tripinfo_290" vType="DEFAULT_VEHTYPE" speedFactor="1.14" vaporized=""/>
    <tripinfo id="16" depart="4.00" departLane="85_4way_42to4way_34_0" departPos="5.10" departSpeed="0.00" departDelay="0.67" arrival="78.00" arrivalLane="82_4way_34to4way_33_0" arrivalPos="85.60" arrivalSpeed="12.41" duration="74.00" routeLength="175.13" waitingTime="50.00" waitingCount="1" stopTime="0.00" timeLoss="58.54" rerouteNo="0" devices="tripinfo_16" vType="DEFAULT_VEHTYPE" speedFactor="0.90" vaporized=""/>
    <tripinfo id="111" depart="24.00" departLane="92_4way_38to4way_46_0" departPos="5.10" departSpeed="0.00" departDelay="0.88" arrival="78.00" arrivalLane="35_4way_54to3way_55_0" arrivalPos="85.60" arrivalSpeed="10.82" duration="54.00" routeLength="275.13" waitingTime="20.00" waitingCount="1" stopTime="0.00" timeLoss="29.09" rerouteNo="0" devices="tripinfo_111" vType="DEFAULT_VEHTYPE" speedFactor="0.84" vaporized=""/>
    <tripinfo id="155" depart="33.00" departLane="32_3way_6to3way_5_0" departPos="5.10" departSpeed="0.00" departDelay="0.71" arrival="78.00" arrivalLane="32_3way_6to3way_5_0" arrivalPos="85.60" arrivalSpeed="2.99" duration="45.00" routeLength="80.50" waitingTime="27.00" waitingCount="1" stopTime="0.00" timeLoss="38.85" rerouteNo="0" devices="tripinfo_155" vType="DEFAULT_VEHTYPE" speedFactor="0.94" vaporized=""/>
    <tripinfo id="256" depart="54.00" departLane="99_4way_45to4way_44_0" departPos="5.10" departSpeed="0.00" departDelay="0.67" arrival="78.00" arrivalLane="97_4way_44to4way_43_0" arrivalPos="85.60" arrivalSpeed="13.41" duration="24.00" routeLength="180.50" waitingTime="0.00" waitingCount="0" stopTime="0.00" timeLoss="10.48" rerouteNo="0" devices="tripinfo_256" vType="DEFAULT_VEHTYPE" speedFactor="1.03" vaporized=""/>
    <tripinfo id="317" depart="67.00" departLane="79_4way_30to4way_29_0" departPos="5.10" departSpeed="0.00" departDelay="0.97" arrival="78.00" arrivalLane="79_4way_30to4way_29_0" arrivalPos="85.60" arrivalSpeed="11.37" duration="11.00" routeLength="80.50" waitingTime="0.00" waitingCount="0" stopTime="0.00" timeLoss="5.11" rerouteNo="0" devices="tripinfo_317" vType="DEFAULT_VEHTYPE" speedFactor="1.11" vaporized=""/>
    <tripinfo id="1" depart="1.00" departLane="73_4way_26to4way_27_0" departPos="5.10" departSpeed="0.00" departDelay="0.79" arrival="79.00" arrivalLane="53_4way_19to4way_11_0" arrivalPos="85.60" arrivalSpeed="13.20" duration="78.00" routeLength="275.13" waitingTime="46.00" waitingCount="1" stopTime="0.00" timeLoss="57.95" rerouteNo="0" devices="tripinfo_1" vType="DEFAULT_VEHTYPE" speedFactor="1.04" vaporized=""/>
    <tripinfo id="90" depart="19.00" departLane="44_3way_60to4way_52_0" departPos="5.10" departSpeed="0.00" departDelay="0.25" arrival="79.00" arrivalLane="95_4way_43to4way_42_0" arrivalPos="85.60" arrivalSpeed="13.05" duration="60.00" routeLength="375.13" waitingTime="19.00" waitingCount="1" stopTime="0.00" timeLoss="30.69" rerouteNo="0" devices="tripinfo_90" vType="DEFAULT_VEHTYPE" speedFactor="0.95" vaporized=""/>
    <tripinfo id="127" depart="27.00" departLane="96_4way_50to4way_42_0" departPos="5.10" departSpeed="0.00" departDelay="0.55" arrival="79.00" arrivalLane="85_4way_42to4way_34_0" arrivalPos="85.60" arrivalSpeed="12.78" duration="52.00" routeLength="180.50" waitingTime="28.00" waitingCount="1" stopTime="0.00" timeLoss="38.92" rerouteNo="0" devices="tripinfo_127" vType="DEFAULT_VEHTYPE" speedFactor="1.00" vaporized=""/>
    <tripinfo id="152" depart="32.00" departLane="25_3way_4to4way_12_0" departPos="5.10" departSpeed="0.00" departDelay="0.34" arrival="79.00" arrivalLane="13_4way_22to3way_23_0" arrivalPos="85.60" arrivalSpeed="11.60" duration="47.00" routeLength="475.13" waitingTime="0.00" waitingCount="0" stopTime="0.00" timeLoss="7.13" rerouteNo="0" devices="tripinfo_152" vType="DEFAULT_VEHTYPE" speedFactor="0.89" vaporized=""/>
    <tripinfo id="95" depart="20.00" departLane="81_4way_30to4way_38_0" departPos="5.10" departSpeed="0.00" departDelay="0.21" arrival="80.00" arrivalLane="35_4way_54to3way_55_0" arrivalPos="85.60" arrivalSpeed="12.24" duration="60.00" routeLength="375.13" waitingTime="17.00" waitingCount="1" stopTime="0.00" timeLoss="28.13" rerouteNo="0" devices="tripinfo_95" vType="DEFAULT_VEHTYPE" speedFactor="0.88" vaporized=""/>
    <tripinfo id="254" depart="55.00" departLane="52_4way_12to4way_11_0" departPos="5.10" departSpeed="0.00" departDelay="2.09" arrival="80.00" arrivalLane="53_4way_11to4way_19_0" arrivalPos="85.60" arrivalSpeed="12.02" duration="25.00" routeLength="175.13" waitingTime="1.00" waitingCount="1" stopTime="0.00" timeLoss="9.94" rerouteNo="0" devices="tripinfo_254" vType="DEFAULT_VEHTYPE" speedFactor="0.90" vaporized=""/>
    <tripinfo id="101" depart="22.00" departLane="24_3way_5to3way_4_0" departPos="5.10" departSpeed="0.00" departDelay="0.96" arrival="82.00" arrivalLane="10_3way_3to3way_2_0" arrivalPos="85.60" arrivalSpeed="10.49" duration="60.00" routeLength="280.50" waitingTime="28.00" waitingCount="1" stopTime="0.00" timeLoss="40.03" rerouteNo="0" devices="tripinfo_101" vType="DEFAULT_VEHTYPE" speedFactor="1.03" vaporized=""/>
    <tripinfo id="247" depart="52.00" departLane="7_3way_16to3way_24_0" departPos="5.10" departSpeed="0.00" departDelay="0.55" arrival="82.00" arrivalLane="26_3way_40to3way_48_0" arrivalPos="85.60" arrivalSpeed="14.42" duration="30.00" routeLength="380.50" waitingTime="0.00" waitingCount="0" stopTime="0.00" timeLoss="4.24" rerouteNo="0" devices="tripinfo_247" vType="DEFAULT_VEHTYPE" speedFactor="1.07" vaporized=""/>
    <tripinfo id="92" depart="20.00" departLane="96_4way_50to4way_42_0" departPos="5.10" departSpeed="0.00" departDelay="0.84" arrival="83.00" arrivalLane="74_4way_34to4way_26_0" arrivalPos="85.60" arrivalSpeed="15.42" duration="63.00" routeLength="280.50" waitingTime="35.00" waitingCount="1" stopTime="0.00" timeLoss="44.80" rerouteNo="0" devices="tripinfo_92" vType="DEFAULT_VEHTYPE" speedFactor="1.13" vaporized=""/>
    <tripinfo id="114" depart="24.00" departLane="45_3way_62to3way_61_0" departPos="5.10" departSpeed="0.00" departDelay="0.25" arrival="84.00" arrivalLane="40_3way_60to3way_59_0" arrivalPos="85.60" arrivalSpeed="14.45" duration="60.00" routeLength="280.50" waitingTime="31.00" waitingCount="1" stopTime="0.00" timeLoss="40.33" rerouteNo="0" devices="tripinfo_114" vType="DEFAULT_VEHTYPE" speedFactor="1.06" vaporized=""/>
    <tripinfo id="115" depart="24.00" departLane="11_3way_2to4way_10_0" departPos="5.10" departSpeed="0.00" departDelay="0.04" arrival="84.00" arrivalLane="50_4way_10to4way_18_0" arrivalPos="85.60" arrivalSpeed="12.77" duration="60.00" routeLength="180.50" waitingTime="34.00" waitingCount="1" stopTime="0.00" timeLoss="45.58" rerouteNo="0" devices="tripinfo_115" vType="DEFAULT_VEHTYPE" speedFactor="0.92" vaporized=""/>
    <tripinfo id="163" depart="34.00" departLane="7_3way_16to3way_24_0" departPos="5.10" departSpeed="0.00" departDelay="0.05" arrival="84.00" arrivalLane="30_3way_48to3way_57_0" arrivalPos="182.40" arrivalSpeed="12.11" duration="50.00" routeLength="577.30" waitingTime="0.00" waitingCount="0" stopTime="0.00" timeLoss="5.49" rerouteNo="0" devices="tripinfo_163" vType="DEFAULT_VEHTYPE" speedFactor="0.94" vaporized=""/>
    <tripinfo id="173" depart="37.00" departLane="17_3way_3to4way_11_0" departPos="5.10" departSpeed="0.00" departDelay="0.96" arrival="84.00" arrivalLane="65_4way_19to4way_27_0" arrivalPos="85.60" arrivalSpeed="9.75" duration="47.00" routeLength="280.50" waitingTime="14.00" waitingCount="1" stopTime="0.00" timeLoss="24.48" rerouteNo="0" devices="tripinfo_173" vType="DEFAULT_VEHTYPE" speedFactor="0.90" vaporized=""/>