<?xml version="1.0" encoding="UTF-8"?>

<!-- generated on 2023-02-25 03:46:24 by Eclipse SUMO sumo Version 1.12.0
<configuration xmlns:xsi="http://www.w3.org/2001/XMLSchema-instance" xsi:noNamespaceSchemaLocation="http://sumo.dlr.de/xsd/sumoConfiguration.xsd">

    <input>
        <net-file value="../../data_generation/sq.net.xml"/>
        <route-files value="../../data_generation/sq.rou.xml"/>
    </input>

    <output>
        <tripinfo-output value="tripinfo.xml"/>
        <statistic-output value="statistic.xml"/>
    </output>

    <time>
        <begin value="0"/>
        <end value="3600"/>
    </time>

    <processing>
        <time-to-teleport value="-1"/>
    </processing>

    <traci_server>
        <remote-port value="47907"/>
    </traci_server>

    <random_number>
        <seed value="1395"/>
    </random_number>

    <gui_only>
        <gui-settings-file value="../../data_generation/view_HY_0402.xml"/>
    </gui_only>

</configuration>
-->

<tripinfos xmlns:xsi="http://www.w3.org/2001/XMLSchema-instance" xsi:noNamespaceSchemaLocation="http://sumo.dlr.de/xsd/tripinfo_file.xsd">
    <tripinfo id="1" depart="1.00" departLane="9_3way_B0to4way_B1_0" departPos="5.10" departSpeed="0.00" departDelay="0.58" arrival="18.00" arrivalLane="9_3way_B0to4way_B1_0" arrivalPos="185.60" arrivalSpeed="13.69" duration="17.00" routeLength="180.50" waitingTime="0.00" waitingCount="0" stopTime="0.00" timeLoss="3.89" rerouteNo="0" devices="tripinfo_1" vType="DEFAULT_VEHTYPE" speedFactor="1.04" vaporized=""/>
    <tripinfo id="16" depart="7.00" departLane="3_4way_B1to3way_A1_0" departPos="5.10" departSpeed="0.00" departDelay="0.28" arrival="26.00" arrivalLane="3_4way_B1to3way_A1_0" arrivalPos="185.60" arrivalSpeed="11.51" duration="19.00" routeLength="180.50" waitingTime="0.00" waitingCount="0" stopTime="0.00" timeLoss="4.29" rerouteNo="0" devices="tripinfo_16" vType="DEFAULT_VEHTYPE" speedFactor="0.90" vaporized=""/>
    <tripinfo id="21" depart="9.00" departLane="22_3way_E2to3way_E3_0" departPos="5.10" departSpeed="0.00" departDelay="0.18" arrival="28.00" arrivalLane="22_3way_E2to3way_E3_0" arrivalPos="185.60" arrivalSpeed="10.67" duration="19.00" routeLength="180.50" waitingTime="0.00" waitingCount="0" stopTime="0.00" timeLoss="3.17" rerouteNo="0" devices="tripinfo_21" vType="DEFAULT_VEHTYPE" speedFactor="0.82" vaporized=""/>
    <tripinfo id="24" depart="11.00" departLane="10_3way_B4to3way_C4_0" departPos="5.10" departSpeed="0.00" departDelay="0.92" arrival="28.00" arrivalLane="10_3way_B4to3way_C4_0" arrivalPos="185.60" arrivalSpeed="12.81" duration="17.00" routeLength="180.50" waitingTime="0.00" waitingCount="0" stopTime="0.00" timeLoss="3.02" rerouteNo="0" devices="tripinfo_24" vType="DEFAULT_VEHTYPE" speedFactor="0.97" vaporized=""/>
    <tripinfo id="0" depart="0.00" departLane="25_4way_B2to4way_B1_0" departPos="5.10" departSpeed="0.00" departDelay="0.00" arrival="31.00" arrivalLane="9_4way_B1to3way_B0_0" arrivalPos="185.60" arrivalSpeed="12.98" duration="31.00" routeLength="380.50" waitingTime="0.00" waitingCount="0" stopTime="0.00" timeLoss="3.63" rerouteNo="0" devices="tripinfo_0" vType="DEFAULT_VEHTYPE" speedFactor="1.00" vaporized=""/>
    <tripinfo id="8" depart="5.00" departLane="27_4way_B3to4way_B2_0" departPos="5.10" departSpeed="0.00" departDelay="1.64" arrival="40.00" arrivalLane="28_4way_B2to4way_C2_0" arrivalPos="185.60" arrivalSpeed="12.84" duration="35.00" routeLength="375.13" waitingTime="0.00" waitingCount="0" stopTime="0.00" timeLoss="6.03" rerouteNo="0" devices="tripinfo_8" vType="DEFAULT_VEHTYPE" speedFactor="0.98" vaporized=""/>
    <tripinfo id="27" depart="12.00" departLane="6_3way_A3to3way_B4_0" departPos="5.10" departSpeed="0.00" departDelay="0.66" arrival="44.00" arrivalLane="6_3way_A3to3way_B4_0" arrivalPos="388.80" arrivalSpeed="13.80" duration="32.00" routeLength="383.70" waitingTime="0.00" waitingCount="0" stopTime="0.00" timeLoss="4.47" rerouteNo="0" devices="tripinfo_27" vType="DEFAULT_VEHTYPE" speedFactor="1.03" vaporized=""/>
    <tripinfo id="63" depart="27.00" departLane="9_4way_B1to3way_B0_0" departPos="5.10" departSpeed="0.00" departDelay="0.54" arrival="44.00" arrivalLane="9_4way_B1to3way_B0_0" arrivalPos="185.60" arrivalSpeed="12.28" duration="17.00" routeLength="180.50" waitingTime="0.00" waitingCount="0" stopTime="0.00" timeLoss="3.27" rerouteNo="0" devices="tripinfo_63" vType="DEFAULT_VEHTYPE" speedFactor="0.95" vaporized=""/>
    <tripinfo id="64" depart="27.00" departLane="26_4way_C1to4way_B1_0" departPos="5.10" departSpeed="0.00" departDelay="0.12" arrival="44.00" arrivalLane="26_4way_C1to4way_B1_0" arrivalPos="185.60" arrivalSpeed="12.09" duration="17.00" routeLength="180.50" waitingTime="0.00" waitingCount="0" stopTime="0.00" timeLoss="3.44" rerouteNo="0" devices="tripinfo_64" vType="DEFAULT_VEHTYPE" speedFactor="0.96" vaporized=""/>
    <tripinfo id="71" depart="31.00" departLane="11_4way_B3to3way_B4_0" departPos="5.10" departSpeed="0.00" departDelay="1.18" arrival="47.00" arrivalLane="11_4way_B3to3way_B4_0" arrivalPos="185.60" arrivalSpeed="14.50" duration="16.00" routeLength="180.50" waitingTime="0.00" waitingCount="0" stopTime="0.00" timeLoss="3.69" rerouteNo="0" devices="tripinfo_71" vType="DEFAULT_VEHTYPE" speedFactor="1.13" vaporized=""/>
    <tripinfo id="76" depart="32.00" departLane="17_3way_D0to4way_D1_0" departPos="5.10" departSpeed="0.00" departDelay="0.08" arrival="51.00" arrivalLane="17_3way_D0to4way_D1_0" arrivalPos="185.60" arrivalSpeed="11.62" duration="19.00" routeLength="180.50" waitingTime="0.00" waitingCount="0" stopTime="0.00" timeLoss="3.92" rerouteNo="0" devices="tripinfo_76" vType="DEFAULT_VEHTYPE" speedFactor="0.90" vaporized=""/>
    <tripinfo id="78" depart="34.00" departLane="36_4way_D2to4way_D3_0" departPos="5.10" departSpeed="0.00" departDelay="1.24" arrival="51.00" arrivalLane="36_4way_D2to4way_D3_0" arrivalPos="185.60" arrivalSpeed="13.22" duration="17.00" routeLength="180.50" waitingTime="0.00" waitingCount="0" stopTime="0.00" timeLoss="3.69" rerouteNo="0" devices="tripinfo_78" vType="DEFAULT_VEHTYPE" speedFactor="1.03" vaporized=""/>
    <tripinfo id="54" depart="23.00" departLane="25_4way_B1to4way_B2_0" departPos="5.10" departSpeed="0.00" departDelay="0.32" arrival="53.00" arrivalLane="27_4way_B2to4way_B3_0" arrivalPos="185.60" arrivalSpeed="14.77" duration="30.00" routeLength="380.50" waitingTime="0.00" waitingCount="0" stopTime="0.00" timeLoss="4.17" rerouteNo="0" devices="tripinfo_54" vType="DEFAULT_VEHTYPE" speedFactor="1.07" vaporized=""/>
    <tripinfo id="77" depart="37.00" departLane="27_4way_B3to4way_B2_0" departPos="5.10" departSpeed="0.00" departDelay="4.66" arrival="54.00" arrivalLane="27_4way_B3to4way_B2_0" arrivalPos="185.60" arrivalSpeed="13.63" duration="17.00" routeLength="180.50" waitingTime="0.00" waitingCount="0" stopTime="0.00" timeLoss="3.65" rerouteNo="0" devices="tripinfo_77" vType="DEFAULT_VEHTYPE" speedFactor="0.99" vaporized=""/>
    <tripinfo id="50" depart="21.00" departLane="19_4way_D3to3way_D4_0" departPos="5.10" departSpeed="0.00" departDelay="0.00" arrival="55.00" arrivalLane="14_3way_D4to3way_C4_0" arrivalPos="185.60" arrivalSpeed="13.05" duration="34.00" routeLength="375.13" waitingTime="0.00" waitingCount="0" stopTime="0.00" timeLoss="6.11" rerouteNo="0" devices="tripinfo_50" vType="DEFAULT_VEHTYPE" speedFactor="1.01" vaporized=""/>
    <tripinfo id="65" depart="28.00" departLane="17_3way_D0to4way_D1_0" departPos="5.10" departSpeed="0.00" departDelay="0.70" arrival="58.00" arrivalLane="31_4way_D1to4way_C1_0" arrivalPos="185.60" arrivalSpeed="15.75" duration="30.00" routeLength="375.13" waitingTime="0.00" waitingCount="0" stopTime="0.00" timeLoss="6.10" rerouteNo="0" devices="tripinfo_65" vType="DEFAULT_VEHTYPE" speedFactor="1.20" vaporized=""/>
    <tripinfo id="94" depart="42.00" departLane="14_3way_D4to3way_C4_0" departPos="5.10" departSpeed="0.00" departDelay="2.52" arrival="58.00" arrivalLane="14_3way_D4to3way_C4_0" arrivalPos="185.60" arrivalSpeed="14.54" duration="16.00" routeLength="180.50" waitingTime="0.00" waitingCount="0" stopTime="0.00" timeLoss="3.69" rerouteNo="0" devices="tripinfo_94" vType="DEFAULT_VEHTYPE" speedFactor="1.08" vaporized=""/>
    <tripinfo id="68" depart="29.00" departLane="35_4way_D1to4way_D2_0" departPos="5.10" departSpeed="0.00" departDelay="0.44" arrival="61.00" arrivalLane="33_4way_D2to4way_C2_0" arrivalPos="185.60" arrivalSpeed="14.60" duration="32.00" routeLength="375.13" waitingTime="0.00" waitingCount="0" stopTime="0.00" timeLoss="6.26" rerouteNo="0" devices="tripinfo_68" vType="DEFAULT_VEHTYPE" speedFactor="1.09" vaporized=""/>
    <tripinfo id="98" depart="42.00" departLane="1_3way_A2to3way_A1_0" departPos="5.10" departSpeed="0.00" departDelay="0.84" arrival="61.00" arrivalLane="1_3way_A2to3way_A1_0" arrivalPos="185.60" arrivalSpeed="11.50" duration="19.00" routeLength="180.50" waitingTime="0.00" waitingCount="0" stopTime="0.00" timeLoss="3.77" rerouteNo="0" devices="tripinfo_98" vType="DEFAULT_VEHTYPE" speedFactor="0.88" vaporized=""/>
    <tripinfo id="99" depart="43.00" departLane="17_3way_D0to4way_D1_0" departPos="5.10" departSpeed="0.00" departDelay="1.42" arrival="61.00" arrivalLane="17_3way_D0to4way_D1_0" arrivalPos="185.60" arrivalSpeed="13.11" duration="18.00" routeLength="180.50" waitingTime="0.00" waitingCount="0" stopTime="0.00" timeLoss="3.75" rerouteNo="0" devices="tripinfo_99" vType="DEFAULT_VEHTYPE" speedFactor="0.97" vaporized=""/>
    <tripinfo id="41" depart="18.00" departLane="29_4way_C3to4way_B3_0" departPos="5.10" departSpeed="0.00" departDelay="0.78" arrival="62.00" arrivalLane="25_4way_B2to4way_B1_0" arrivalPos="185.60" arrivalSpeed="15.01" duration="44.00" routeLength="575.13" waitingTime="0.00" waitingCount="0" stopTime="0.00" timeLoss="6.41" rerouteNo="0" devices="tripinfo_41" vType="DEFAULT_VEHTYPE" speedFactor="1.12" vaporized=""/>
    <tripinfo id="32" depart="14.00" departLane="17_3way_D0to4way_D1_0" departPos="5.10" departSpeed="0.00" departDelay="0.56" arrival="63.00" arrivalLane="36_4way_D2to4way_D3_0" arrivalPos="185.60" arrivalSpeed="13.67" duration="49.00" routeLength="580.50" waitingTime="0.00" waitingCount="0" stopTime="0.00" timeLoss="7.10" rerouteNo="0" devices="tripinfo_32" vType="DEFAULT_VEHTYPE" speedFactor="1.00" vaporized=""/>
    <tripinfo id="51" depart="22.00" departLane="35_4way_D2to4way_D1_0" departPos="5.10" departSpeed="0.00" departDelay="0.58" arrival="64.00" arrivalLane="17_4way_D1to3way_D0_0" arrivalPos="185.60" arrivalSpeed="9.36" duration="42.00" routeLength="380.50" waitingTime="0.00" waitingCount="0" stopTime="0.00" timeLoss="4.80" rerouteNo="0" devices="tripinfo_51" vType="DEFAULT_VEHTYPE" speedFactor="0.74" vaporized=""/>
    <tripinfo id="116" depart="49.00" departLane="7_3way_A3to4way_B3_0" departPos="5.10" departSpeed="0.00" departDelay="0.28" arrival="66.00" arrivalLane="7_3way_A3to4way_B3_0" arrivalPos="185.60" arrivalSpeed="12.84" duration="17.00" routeLength="180.50" waitingTime="0.00" waitingCount="0" stopTime="0.00" timeLoss="3.35" rerouteNo="0" devices="tripinfo_116" vType="DEFAULT_VEHTYPE" speedFactor="0.99" vaporized=""/>
    <tripinfo id="69" depart="29.00" departLane="29_4way_C3to4way_B3_0" departPos="5.10" departSpeed="0.00" departDelay="0.02" arrival="68.00" arrivalLane="7_4way_B3to3way_A3_0" arrivalPos="185.60" arrivalSpeed="10.31" duration="39.00" routeLength="380.50" waitingTime="0.00" waitingCount="0" stopTime="0.00" timeLoss="4.68" rerouteNo="0" devices="tripinfo_69" vType="DEFAULT_VEHTYPE" speedFactor="0.82" vaporized=""/>
    <tripinfo id="122" depart="54.00" departLane="28_4way_B2to4way_C2_0" departPos="5.10" departSpeed="0.00" departDelay="2.76" arrival="69.00" arrivalLane="28_4way_B2to4way_C2_0" arrivalPos="185.60" arrivalSpeed="15.48" duration="15.00" routeLength="180.50" waitingTime="0.00" waitingCount="0" stopTime="0.00" timeLoss="4.11" rerouteNo="0" devices="tripinfo_122" vType="DEFAULT_VEHTYPE" speedFactor="1.20" vaporized=""/>
    <tripinfo id="17" depart="8.00" departLane="35_4way_D1to4way_D2_0" departPos="5.10" departSpeed="0.00" departDelay="0.86" arrival="70.00" arrivalLane="34_4way_D3to4way_C3_0" arrivalPos="185.60" arrivalSpeed="4.71" duration="62.00" routeLength="575.13" waitingTime="10.00" waitingCount="1" stopTime="0.00" timeLoss="21.43" rerouteNo="0" devices="tripinfo_17" vType="DEFAULT_VEHTYPE" speedFactor="1.04" vaporized=""/>
    <tripinfo id="45" depart="19.00" departLane="3_3way_A1to4way_B1_0" departPos="5.10" departSpeed="0.00" departDelay="0.10" arrival="70.00" arrivalLane="3_3way_A1to4way_B1_0" arrivalPos="185.60" arrivalSpeed="5.05" duration="51.00" routeLength="180.50" waitingTime="30.00" waitingCount="1" stopTime="0.00" timeLoss="38.00" rerouteNo="0" devices="tripinfo_45" vType="DEFAULT_VEHTYPE" speedFactor="1.00" vaporized=""/>
    <tripinfo id="89" depart="39.00" departLane="9_4way_B1to3way_B0_0" departPos="5.10" departSpeed="0.00" departDelay="1.62" arrival="70.00" arrivalLane="9_4way_B1to3way_B0_0" arrivalPos="185.60" arrivalSpeed="5.07" duration="31.00" routeLength="180.50" waitingTime="9.00" waitingCount="1" stopTime="0.00" timeLoss="17.03" rerouteNo="0" devices="tripinfo_89" vType="DEFAULT_VEHTYPE" speedFactor="0.93" vaporized=""/>
    <tripinfo id="111" depart="47.00" departLane="14_3way_C4to3way_D4_0" departPos="5.10" departSpeed="0.00" departDelay="0.38" arrival="71.00" arrivalLane="14_3way_C4to3way_D4_0" arrivalPos="185.60" arrivalSpeed="6.57" duration="24.00" routeLength="180.50" waitingTime="0.00" waitingCount="0" stopTime="0.00" timeLoss="8.06" rerouteNo="0" devices="tripinfo_111" vType="DEFAULT_VEHTYPE" speedFactor="0.84" vaporized=""/>
    <tripinfo id="13" depart="6.00" departLane="16_3way_E1to3way_D0_0" departPos="5.10" departSpeed="0.00" departDelay="0.54" arrival="73.00" arrivalLane="12_3way_D0to3way_C0_0" arrivalPos="185.60" arrivalSpeed="6.27" duration="67.00" routeLength="583.70" waitingTime="13.00" waitingCount="1" stopTime="0.00" timeLoss="23.99" rerouteNo="0" devices="tripinfo_13" vType="DEFAULT_VEHTYPE" speedFactor="0.98" vaporized=""/>
    <tripinfo id="124" depart="53.00" departLane="9_4way_B1to3way_B0_0" departPos="5.10" departSpeed="0.00" departDelay="0.92" arrival="73.00" arrivalLane="9_4way_B1to3way_B0_0" arrivalPos="185.60" arrivalSpeed="8.71" duration="20.00" routeLength="180.50" waitingTime="0.00" waitingCount="0" stopTime="0.00" timeLoss="7.82" rerouteNo="0" devices="tripinfo_124" vType="DEFAULT_VEHTYPE" speedFactor="1.11" vaporized=""/>
    <tripinfo id="133" depart="56.00" departLane="15_4way_C3to3way_C4_0" departPos="5.10" departSpeed="0.00" departDelay="0.14" arrival="75.00" arrivalLane="15_4way_C3to3way_C4_0" arrivalPos="185.60" arrivalSpeed="8.84" duration="19.00" routeLength="180.50" waitingTime="0.00" waitingCount="0" stopTime="0.00" timeLoss="5.78" rerouteNo="0" devices="tripinfo_133" vType="DEFAULT_VEHTYPE" speedFactor="1.01" vaporized=""/>
    <tripinfo id="134" depart="57.00" departLane="32_4way_C2to4way_C3_0" departPos="5.10" departSpeed="0.00" departDelay="0.72" arrival="75.00" arrivalLane="32_4way_C2to4way_C3_0" arrivalPos="185.60" arrivalSpeed="12.86" duration="18.00" routeLength="180.50" waitingTime="0.00" waitingCount="0" stopTime="0.00" timeLoss="4.58" rerouteNo="0" devices="tripinfo_134" vType="DEFAULT_VEHTYPE" speedFactor="1.00" vaporized=""/>
    <tripinfo id="70" depart="35.00" departLane="36_4way_D3to4way_D2_0" departPos="5.10" departSpeed="0.00" departDelay="5.60" arrival="76.00" arrivalLane="35_4way_D2to4way_D1_0" arrivalPos="185.60" arrivalSpeed="9.23" duration="41.00" routeLength="380.50" waitingTime="0.00" waitingCount="0" stopTime="0.00" timeLoss="4.26" rerouteNo="0" devices="tripinfo_70" vType="DEFAULT_VEHTYPE" speedFactor="0.75" vaporized=""/>
    <tripinfo id="140" depart="59.00" departLane="13_4way_C1to3way_C0_0" departPos="5.10" departSpeed="0.00" departDelay="0.20" arrival="76.00" arrivalLane="13_4way_C1to3way_C0_0" arrivalPos="185.60" arrivalSpeed="12.69" duration="17.00" routeLength="180.50" waitingTime="0.00" waitingCount="0" stopTime="0.00" timeLoss="2.93" rerouteNo="0" devices="tripinfo_140" vType="DEFAULT_VEHTYPE" speedFactor="0.93" vaporized=""/>
    <tripinfo id="101" depart="44.00" departLane="15_3way_C4to4way_C3_0" departPos="5.10" departSpeed="0.00" departDelay="1.58" arrival="77.00" arrivalLane="34_4way_C3to4way_D3_0" arrivalPos="185.60" arrivalSpeed="14.03" duration="33.00" routeLength="375.13" waitingTime="0.00" waitingCount="0" stopTime="0.00" timeLoss="5.74" rerouteNo="0" devices="tripinfo_101" vType="DEFAULT_VEHTYPE" speedFactor="1.03" vaporized=""/>
    <tripinfo id="144" depart="61.00" departLane="7_4way_B3to3way_A3_0" departPos="5.10" departSpeed="0.00" departDelay="0.52" arrival="77.00" arrivalLane="7_4way_B3to3way_A3_0" arrivalPos="185.60" arrivalSpeed="13.89" duration="16.00" routeLength="180.50" waitingTime="0.00" waitingCount="0" stopTime="0.00" timeLoss="3.71" rerouteNo="0" devices="tripinfo_144" vType="DEFAULT_VEHTYPE" speedFactor="1.07" vaporized=""/>
    <tripinfo id="18" depart="8.00" departLane="16_3way_D0to3way_E1_0" departPos="5.10" departSpeed="0.00" departDelay="0.44" arrival="78.00" arrivalLane="20_3way_E1to3way_E2_0" arrivalPos="185.60" arrivalSpeed="8.46" duration="70.00" routeLength="577.30" waitingTime="12.00" waitingCount="1" stopTime="0.00" timeLoss="25.99" rerouteNo="0" devices="tripinfo_18" vType="DEFAULT_VEHTYPE" speedFactor="0.96" vaporized=""/>
    <tripinfo id="47" depart="20.00" departLane="19_3way_D4to4way_D3_0" departPos="5.10" departSpeed="0.00" departDelay="0.26" arrival="78.00" arrivalLane="35_4way_D2to4way_D1_0" arrivalPos="185.60" arrivalSpeed="11.33" duration="58.00" routeLength="580.50" waitingTime="0.00" waitingCount="0" stopTime="0.00" timeLoss="10.89" rerouteNo="0" devices="tripinfo_47" vType="DEFAULT_VEHTYPE" speedFactor="0.90" vaporized=""/>
    <tripinfo id="25" depart="11.00" departLane="19_3way_D4to4way_D3_0" departPos="5.10" departSpeed="0.00" departDelay="0.50" arrival="79.00" arrivalLane="31_4way_D1to4way_C1_0" arrivalPos="185.60" arrivalSpeed="12.29" duration="68.00" routeLength="780.30" waitingTime="0.00" waitingCount="0" stopTime="0.00" timeLoss="7.46" rerouteNo="0" devices="tripinfo_25" vType="DEFAULT_VEHTYPE" speedFactor="0.95" vaporized=""/>
    <tripinfo id="26" depart="14.00" departLane="19_3way_D4to4way_D3_0" departPos="5.10" departSpeed="0.00" departDelay="3.08" arrival="79.00" arrivalLane="17_4way_D1to3way_D0_0" arrivalPos="185.60" arrivalSpeed="14.32" duration="65.00" routeLength="780.50" waitingTime="0.00" waitingCount="0" stopTime="0.00" timeLoss="10.10" rerouteNo="0" devices="tripinfo_26" vType="DEFAULT_VEHTYPE" speedFactor="1.03" vaporized=""/>
    <tripinfo id="145" depart="61.00" departLane="32_4way_C2to4way_C3_0" departPos="5.10" departSpeed="0.00" departDelay="0.10" arrival="79.00" arrivalLane="32_4way_C2to4way_C3_0" arrivalPos="185.60" arrivalSpeed="13.04" duration="18.00" routeLength="180.50" waitingTime="0.00" waitingCount="0" stopTime="0.00" timeLoss="4.14" rerouteNo="0" devices="tripinfo_145" vType="DEFAULT_VEHTYPE" speedFactor="0.96" vaporized=""/>
    <tripinfo id="148" depart="63.00" departLane="4_3way_A2to3way_A3_0" departPos="5.10" departSpeed="0.00" departDelay="0.84" arrival="79.00" arrivalLane="4_3way_A2to3way_A3_0" arrivalPos="185.60" arrivalSpeed="13.59" duration="16.00" routeLength="180.50" waitingTime="0.00" waitingCount="0" stopTime="0.00" timeLoss="3.84" rerouteNo="0" devices="tripinfo_148" vType="DEFAULT_VEHTYPE" speedFactor="1.07" vaporized=""/>
    <tripinfo id="12" depart="6.00" departLane="15_4way_C3to3way_C4_0" departPos="5.10" departSpeed="0.00" departDelay="0.96" arrival="82.00" arrivalLane="10_3way_C4to3way_B4_0" arrivalPos="185.60" arrivalSpeed="15.64" duration="76.00" routeLength="375.13" waitingTime="42.00" waitingCount="1" stopTime="0.00" timeLoss="52.24" rerouteNo="0" devices="tripinfo_12" vType="DEFAULT_VEHTYPE" speedFactor="1.16" vaporized=""/>
    <tripinfo id="110" depart="49.00" departLane="28_4way_B2to4way_C2_0" departPos="5.10" departSpeed="0.00" departDelay="2.80" arrival="82.00" arrivalLane="32_4way_C2to4way_C3_0" arrivalPos="185.60" arrivalSpeed="14.61" duration="33.00" routeLength="375.13" waitingTime="0.00" waitingCount="0" stopTime="0.00" timeLoss="6.38" rerouteNo="0" devices="tripinfo_110" vType="DEFAULT_VEHTYPE" speedFactor="1.05" vaporized=""/>
    <tripinfo id="137" depart="58.00" departLane="3_3way_A1to4way_B1_0" departPos="5.10" departSpeed="0.00" departDelay="0.46" arrival="83.00" arrivalLane="3_3way_A1to4way_B1_0" arrivalPos="185.60" arrivalSpeed="14.71" duration="25.00" routeLength="180.50" waitingTime="0.00" waitingCount="0" stopTime="0.00" timeLoss="13.02" rerouteNo="0" devices="tripinfo_137" vType="DEFAULT_VEHTYPE" speedFactor="1.14" vaporized=""/>
    <tripinfo id="34" depart="15.00" departLane="3_3way_A1to4way_B1_0" departPos="5.10" departSpeed="0.00" departDelay="0.72" arrival="85.00" arrivalLane="25_4way_B1to4way_B2_0" arrivalPos="185.60" arrivalSpeed="13.27" duration="70.00" routeLength="375.13" waitingTime="32.00" waitingCount="1" stopTime="0.00" timeLoss="40.73" rerouteNo="0" devices="tripinfo_34" vType="DEFAULT_VEHTYPE" speedFactor="0.96" vaporized=""/>
    <tripinfo id="43" depart="20.00" departLane="5_4way_B2to3way_A2_0" departPos="5.10" departSpeed="0.00" departDelay="1.94" arrival="85.00" arrivalLane="4_3way_A2to3way_A3_0" arrivalPos="185.60" arrivalSpeed="13.07" duration="65.00" routeLength="380.29" waitingTime="27.00" waitingCount="1" stopTime="0.00" timeLoss="35.94" rerouteNo="0" devices="tripinfo_43" vType="DEFAULT_VEHTYPE" speedFactor="0.97" vaporized=""/>
    <tripinfo id="103" depart="44.00" departLane="5_4way_B2to3way_A2_0" departPos="5.10" departSpeed="0.00" departDelay="0.74" arrival="85.00" arrivalLane="1_3way_A2to3way_A1_0" arrivalPos="185.60" arrivalSpeed="15.44" duration="41.00" routeLength="375.13" waitingTime="6.00" waitingCount="1" stopTime="0.00" timeLoss="16.26" rerouteNo="0" devices="tripinfo_103" vType="DEFAULT_VEHTYPE" speedFactor="1.15" vaporized=""/>
    <tripinfo id="15" depart="7.00" departLane="8_3way_B0to3way_C0_0" departPos="5.10" departSpeed="0.00" departDelay="0.70" arrival="86.00" arrivalLane="12_3way_C0to3way_D0_0" arrivalPos="185.60" arrivalSpeed="14.32" duration="79.00" routeLength="380.50" waitingTime="42.00" waitingCount="1" stopTime="0.00" timeLoss="52.20" rerouteNo="0" devices="tripinfo_15" vType="DEFAULT_VEHTYPE" speedFactor="1.05" vaporized=""/>
    <tripinfo id="20" depart="9.00" departLane="7_3way_A3to4way_B3_0" departPos="5.10" departSpeed="0.00" departDelay="0.60" arrival="86.00" arrivalLane="15_4way_C3to3way_C4_0" arrivalPos="185.60" arrivalSpeed="11.85" duration="77.00" routeLength="575.13" waitingTime="19.00" waitingCount="1" stopTime="0.00" timeLoss="29.51" rerouteNo="0" devices="tripinfo_20" vType="DEFAULT_VEHTYPE" speedFactor="0.89" vaporized=""/>
    <tripinfo id="92" depart="39.00" departLane="15_4way_C3to3way_C4_0" departPos="5.10" departSpeed="0.00" departDelay="0.36" arrival="87.00" arrivalLane="10_3way_C4to3way_B4_0" arrivalPos="185.60" arrivalSpeed="15.21" duration="48.00" routeLength="375.13" waitingTime="12.00" waitingCount="1" stopTime="0.00" timeLoss="23.49" rerouteNo="0" devices="tripinfo_92" vType="DEFAULT_VEHTYPE" speedFactor="1.13" vaporized=""/>
    <tripinfo id="14" depart="6.00" departLane="32_4way_C2to4way_C3_0" departPos="5.10" departSpeed="0.00" departDelay="0.12" arrival="88.00" arrivalLane="14_3way_C4to3way_D4_0" arrivalPos="185.60" arrivalSpeed="12.39" duration="82.00" routeLength="580.29" waitingTime="26.00" waitingCount="1" stopTime="0.00" timeLoss="37.16" rerouteNo="0" devices="tripinfo_14" vType="DEFAULT_VEHTYPE" speedFactor="0.95" vaporized=""/>
    <tripinfo id="23" depart="12.00" departLane="7_3way_A3to4way_B3_0" departPos="5.10" departSpeed="0.00" departDelay="2.34" arrival="89.00" arrivalLane="34_4way_C3to4way_D3_0" arrivalPos="185.60" arrivalSpeed="12.15" duration="77.00" routeLength="580.50" waitingTime="17.00" waitingCount="1" stopTime="0.00" timeLoss="28.52" rerouteNo="0" devices="tripinfo_23" vType="DEFAULT_VEHTYPE" speedFactor="0.87" vaporized=""/>
    <tripinfo id="168" depart="73.00" departLane="12_3way_C0to3way_D0_0" departPos="5.10" departSpeed="0.00" departDelay="2.44" arrival="89.00" arrivalLane="12_3way_C0to3way_D0_0" arrivalPos="185.60" arrivalSpeed="14.60" duration="16.00" routeLength="180.50" waitingTime="0.00" waitingCount="0" stopTime="0.00" timeLoss="3.59" rerouteNo="0" devices="tripinfo_168" vType="DEFAULT_VEHTYPE" speedFactor="1.10" vaporized=""/>
    <tripinfo id="37" depart="16.00" departLane="20_3way_E1to3way_E2_0" departPos="5.10" departSpeed="0.00" departDelay="0.46" arrival="91.00" arrivalLane="22_3way_E2to3way_E3_0" arrivalPos="185.60" arrivalSpeed="11.36" duration="75.00" routeLength="380.50" waitingTime="34.00" waitingCount="1" stopTime="0.00" timeLoss="47.41" rerouteNo="0" devices="tripinfo_37" vType="DEFAULT_VEHTYPE" speedFactor="0.99" vaporized=""/>
    <tripinfo id="172" depart="73.00" departLane="11_4way_B3to3way_B4_0" departPos="5.10" departSpeed="0.00" departDelay="0.76" arrival="91.00" arrivalLane="11_4way_B3to3way_B4_0" arrivalPos="185.60" arrivalSpeed="12.12" duration="18.00" routeLength="180.50" waitingTime="0.00" waitingCount="0" stopTime="0.00" timeLoss="3.36" rerouteNo="0" devices="tripinfo_172" vType="DEFAULT_VEHTYPE" speedFactor="0.92" vaporized=""/>
    <tripinfo id="107" depart="45.00" departLane="32_4way_C2to4way_C3_0" departPos="5.10" departSpeed="0.00" departDelay="0.06" arrival="92.00" arrivalLane="14_3way_C4to3way_D4_0" arrivalPos="185.60" arrivalSpeed="14.20" duration="47.00" routeLength="580.29" waitingTime="0.00" waitingCount="0" stopTime="0.00" timeLoss="8.04" rerouteNo="0" devices="tripinfo_107" vType="DEFAULT_VEHTYPE" speedFactor="1.10" vaporized=""/>
    <tripinfo id="55" depart="24.00" departLane="35_4way_D1to4way_D2_0" departPos="5.10" departSpeed="0.00" departDelay="0.90" arrival="93.00" arrivalLane="29_4way_C3to4way_B3_0" arrivalPos="185.60" arrivalSpeed="12.99" duration="69.00" routeLength="775.13" waitingTime="0.00" waitingCount="0" stopTime="0.00" timeLoss="8.11" rerouteNo="0" devices="tripinfo_55" vType="DEFAULT_VEHTYPE" speedFactor="0.94" vaporized=""/>
    <tripinfo id="104" depart="44.00" departLane="20_3way_E1to3way_E2_0" departPos="5.10" departSpeed="0.00" departDelay="0.32" arrival="96.00" arrivalLane="22_3way_E2to3way_E3_0" arrivalPos="185.60" arrivalSpeed="12.88" duration="52.00" routeLength="380.50" waitingTime="10.00" waitingCount="1" stopTime="0.00" timeLoss="22.44" rerouteNo="0" devices="tripinfo_104" vType="DEFAULT_VEHTYPE" speedFactor="0.95" vaporized=""/>
    <tripinfo id="28" depart="12.00" departLane="4_3way_A3to3way_A2_0" departPos="5.10" departSpeed="0.00" departDelay="0.24" arrival="99.00" arrivalLane="26_4way_B1to4way_C1_0" arrivalPos="185.60" arrivalSpeed="9.28" duration="87.00" routeLength="775.13" waitingTime="13.00" waitingCount="1" stopTime="0.00" timeLoss="31.83" rerouteNo="0" devices="tripinfo_28" vType="DEFAULT_VEHTYPE" speedFactor="1.03" vaporized=""/>
    <tripinfo id="195" depart="82.00" departLane="3_3way_A1to4way_B1_0" departPos="5.10" departSpeed="0.00" departDelay="0.10" arrival="100.00" arrivalLane="3_3way_A1to4way_B1_0" arrivalPos="185.60" arrivalSpeed="12.03" duration="18.00" routeLength="180.50" waitingTime="0.00" waitingCount="0" stopTime="0.00" timeLoss="3.35" rerouteNo="0" devices="tripinfo_195" vType="DEFAULT_VEHTYPE" speedFactor="0.90" vaporized=""/>
    <tripinfo id="105" depart="49.00" departLane="35_4way_D2to4way_D1_0" departPos="5.10" departSpeed="0.00" departDelay="4.90" arrival="101.00" arrivalLane="26_4way_C1to4way_B1_0" arrivalPos="185.60" arrivalSpeed="12.38" duration="52.00" routeLength="580.30" waitingTime="0.00" waitingCount="0" stopTime="0.00" timeLoss="6.95" rerouteNo="0" devices="tripinfo_105" vType="DEFAULT_VEHTYPE" speedFactor="0.95" vaporized=""/>
    <tripinfo id="3" depart="2.00" departLane="27_4way_B3to4way_B2_0" departPos="5.10" departSpeed="0.00" departDelay="0.74" arrival="103.00" arrivalLane="12_3way_C0to3way_D0_0" arrivalPos="185.60" arrivalSpeed="12.38" duration="101.00" routeLength="975.13" waitingTime="11.00" waitingCount="1" stopTime="0.00" timeLoss="22.51" rerouteNo="0" devices="tripinfo_3" vType="DEFAULT_VEHTYPE" speedFactor="0.91" vaporized=""/>
    <tripinfo id="149" depart="63.00" departLane="3_3way_A1to4way_B1_0" departPos="5.10" departSpeed="0.00" departDelay="0.42" arrival="104.00" arrivalLane="25_4way_B1to4way_B2_0" arrivalPos="185.60" arrivalSpeed="12.51" duration="41.00" routeLength="375.13" waitingTime="0.00" waitingCount="0" stopTime="0.00" timeLoss="11.31" rerouteNo="0" devices="tripinfo_149" vType="DEFAULT_VEHTYPE" speedFactor="0.95" vaporized=""/>
    <tripinfo id="48" depart="21.00" departLane="34_4way_D3to4way_C3_0" departPos="5.10" departSpeed="0.00" departDelay="0.84" arrival="107.00" arrivalLane="27_4way_B3to4way_B2_0" arrivalPos="185.60" arrivalSpeed="10.77" duration="86.00" routeLength="575.13" waitingTime="24.00" waitingCount="1" stopTime="0.00" timeLoss="35.47" rerouteNo="0" devices="tripinfo_48" vType="DEFAULT_VEHTYPE" speedFactor="0.83" vaporized=""/>
    <tripinfo id="44" depart="19.00" departLane="10_3way_B4to3way_C4_0" departPos="5.10" departSpeed="0.00" departDelay="0.52" arrival="108.00" arrivalLane="18_3way_D4to3way_E3_0" arrivalPos="388.80" arrivalSpeed="10.00" duration="89.00" routeLength="783.70" waitingTime="6.00" waitingCount="1" stopTime="0.00" timeLoss="16.49" rerouteNo="0" devices="tripinfo_44" vType="DEFAULT_VEHTYPE" speedFactor="0.78" vaporized=""/>