<?xml version="1.0" encoding="UTF-8"?>

<!-- generated on 2023-07-29 07:07:52 by Eclipse SUMO sumo Version 1.12.0
<configuration xmlns:xsi="http://www.w3.org/2001/XMLSchema-instance" xsi:noNamespaceSchemaLocation="http://sumo.dlr.de/xsd/sumoConfiguration.xsd">

    <input>
        <net-file value="../../data_generation/sq.net.xml"/>
        <route-files value="../../data_generation/sq.rou.xml"/>
    </input>

    <output>
        <tripinfo-output value="tripinfo.xml"/>
        <statistic-output value="statistic.xml"/>
    </output>

    <time>
        <begin value="0"/>
        <end value="3600"/>
    </time>

    <processing>
        <time-to-teleport value="-1"/>
    </processing>

    <traci_server>
        <remote-port value="49013"/>
    </traci_server>

    <random_number>
        <seed value="1395"/>
    </random_number>

    <gui_only>
        <gui-settings-file value="../../data_generation/view_HY_0402.xml"/>
    </gui_only>

</configuration>
-->

<tripinfos xmlns:xsi="http://www.w3.org/2001/XMLSchema-instance" xsi:noNamespaceSchemaLocation="http://sumo.dlr.de/xsd/tripinfo_file.xsd">
    <tripinfo id="7" depart="2.00" departLane="34_3way_7to3way_6_0" departPos="5.10" departSpeed="0.00" departDelay="0.89" arrival="12.00" arrivalLane="34_3way_7to3way_6_0" arrivalPos="85.60" arrivalSpeed="12.55" duration="10.00" routeLength="80.50" waitingTime="0.00" waitingCount="0" stopTime="0.00" timeLoss="3.22" rerouteNo="0" devices="tripinfo_7" vType="DEFAULT_VEHTYPE" speedFactor="0.95" vaporized=""/>
    <tripinfo id="9" depart="2.00" departLane="104_4way_42to4way_41_0" departPos="5.10" departSpeed="0.00" departDelay="0.57" arrival="12.00" arrivalLane="104_4way_42to4way_41_0" arrivalPos="85.60" arrivalSpeed="12.23" duration="10.00" routeLength="80.50" waitingTime="0.00" waitingCount="0" stopTime="0.00" timeLoss="2.68" rerouteNo="0" devices="tripinfo_9" vType="DEFAULT_VEHTYPE" speedFactor="0.91" vaporized=""/>
    <tripinfo id="38" depart="7.00" departLane="21_4way_37to3way_36_0" departPos="5.10" departSpeed="0.00" departDelay="0.97" arrival="17.00" arrivalLane="21_4way_37to3way_36_0" arrivalPos="85.60" arrivalSpeed="13.47" duration="10.00" routeLength="80.50" waitingTime="0.00" waitingCount="0" stopTime="0.00" timeLoss="3.31" rerouteNo="0" devices="tripinfo_38" vType="DEFAULT_VEHTYPE" speedFactor="1.00" vaporized=""/>
    <tripinfo id="10" depart="2.00" departLane="130_4way_59to4way_60_0" departPos="5.10" departSpeed="0.00" departDelay="0.41" arrival="19.00" arrivalLane="132_4way_60to4way_61_0" arrivalPos="85.60" arrivalSpeed="14.11" duration="17.00" routeLength="180.50" waitingTime="0.00" waitingCount="0" stopTime="0.00" timeLoss="3.77" rerouteNo="0" devices="tripinfo_10" vType="DEFAULT_VEHTYPE" speedFactor="1.04" vaporized=""/>
    <tripinfo id="71" depart="12.00" departLane="6_4way_16to3way_17_0" departPos="5.10" departSpeed="0.00" departDelay="0.73" arrival="21.00" arrivalLane="6_4way_16to3way_17_0" arrivalPos="85.60" arrivalSpeed="15.10" duration="9.00" routeLength="80.50" waitingTime="0.00" waitingCount="0" stopTime="0.00" timeLoss="3.56" rerouteNo="0" devices="tripinfo_71" vType="DEFAULT_VEHTYPE" speedFactor="1.13" vaporized=""/>
    <tripinfo id="51" depart="11.00" departLane="88_4way_30to4way_39_0" departPos="5.10" departSpeed="0.00" departDelay="2.91" arrival="22.00" arrivalLane="88_4way_30to4way_39_0" arrivalPos="85.60" arrivalSpeed="10.06" duration="11.00" routeLength="80.50" waitingTime="0.00" waitingCount="0" stopTime="0.00" timeLoss="2.87" rerouteNo="0" devices="tripinfo_51" vType="DEFAULT_VEHTYPE" speedFactor="0.74" vaporized=""/>
    <tripinfo id="16" depart="3.00" departLane="62_4way_21to4way_12_0" departPos="5.10" departSpeed="0.00" departDelay="0.46" arrival="24.00" arrivalLane="59_4way_12to4way_11_0" arrivalPos="85.60" arrivalSpeed="12.24" duration="21.00" routeLength="175.13" waitingTime="0.00" waitingCount="0" stopTime="0.00" timeLoss="5.57" rerouteNo="0" devices="tripinfo_16" vType="DEFAULT_VEHTYPE" speedFactor="0.90" vaporized=""/>
    <tripinfo id="60" depart="10.00" departLane="111_4way_48to4way_47_0" departPos="5.10" departSpeed="0.00" departDelay="0.48" arrival="26.00" arrivalLane="109_4way_47to4way_46_0" arrivalPos="85.60" arrivalSpeed="14.90" duration="16.00" routeLength="180.50" waitingTime="0.00" waitingCount="0" stopTime="0.00" timeLoss="3.79" rerouteNo="0" devices="tripinfo_60" vType="DEFAULT_VEHTYPE" speedFactor="1.12" vaporized=""/>
    <tripinfo id="75" depart="12.00" departLane="93_4way_33to4way_34_0" departPos="5.10" departSpeed="0.00" departDelay="0.10" arrival="28.00" arrivalLane="19_4way_34to3way_35_0" arrivalPos="85.60" arrivalSpeed="14.70" duration="16.00" routeLength="180.50" waitingTime="0.00" waitingCount="0" stopTime="0.00" timeLoss="3.78" rerouteNo="0" devices="tripinfo_75" vType="DEFAULT_VEHTYPE" speedFactor="1.09" vaporized=""/>
    <tripinfo id="116" depart="19.00" departLane="57_4way_11to4way_10_0" departPos="5.10" departSpeed="0.00" departDelay="0.59" arrival="29.00" arrivalLane="57_4way_11to4way_10_0" arrivalPos="85.60" arrivalSpeed="12.58" duration="10.00" routeLength="80.50" waitingTime="0.00" waitingCount="0" stopTime="0.00" timeLoss="3.31" rerouteNo="0" devices="tripinfo_116" vType="DEFAULT_VEHTYPE" speedFactor="0.99" vaporized=""/>
    <tripinfo id="124" depart="20.00" departLane="79_4way_23to4way_32_0" departPos="5.10" departSpeed="0.00" departDelay="0.32" arrival="29.00" arrivalLane="79_4way_23to4way_32_0" arrivalPos="85.60" arrivalSpeed="14.94" duration="9.00" routeLength="80.50" waitingTime="0.00" waitingCount="0" stopTime="0.00" timeLoss="3.46" rerouteNo="0" devices="tripinfo_124" vType="DEFAULT_VEHTYPE" speedFactor="1.11" vaporized=""/>
    <tripinfo id="13" depart="3.00" departLane="19_4way_34to3way_35_0" departPos="5.10" departSpeed="0.00" departDelay="0.94" arrival="30.00" arrivalLane="24_3way_44to3way_53_0" arrivalPos="85.60" arrivalSpeed="13.50" duration="27.00" routeLength="280.29" waitingTime="0.00" waitingCount="0" stopTime="0.00" timeLoss="5.02" rerouteNo="0" devices="tripinfo_13" vType="DEFAULT_VEHTYPE" speedFactor="0.98" vaporized=""/>
    <tripinfo id="81" depart="13.00" departLane="2_3way_9to3way_1_0" departPos="5.10" departSpeed="0.00" departDelay="0.14" arrival="30.00" arrivalLane="2_3way_9to3way_1_0" arrivalPos="188.80" arrivalSpeed="14.19" duration="17.00" routeLength="183.70" waitingTime="0.00" waitingCount="0" stopTime="0.00" timeLoss="3.62" rerouteNo="0" devices="tripinfo_81" vType="DEFAULT_VEHTYPE" speedFactor="1.05" vaporized=""/>
    <tripinfo id="147" depart="25.00" departLane="108_4way_43to4way_52_0" departPos="5.10" departSpeed="0.00" departDelay="1.67" arrival="34.00" arrivalLane="108_4way_43to4way_52_0" arrivalPos="85.60" arrivalSpeed="13.02" duration="9.00" routeLength="80.50" waitingTime="0.00" waitingCount="0" stopTime="0.00" timeLoss="2.96" rerouteNo="0" devices="tripinfo_147" vType="DEFAULT_VEHTYPE" speedFactor="0.97" vaporized=""/>
    <tripinfo id="160" depart="26.00" departLane="103_4way_49to4way_40_0" departPos="5.10" departSpeed="0.00" departDelay="0.61" arrival="36.00" arrivalLane="103_4way_49to4way_40_0" arrivalPos="85.60" arrivalSpeed="11.01" duration="10.00" routeLength="80.50" waitingTime="0.00" waitingCount="0" stopTime="0.00" timeLoss="2.90" rerouteNo="0" devices="tripinfo_160" vType="DEFAULT_VEHTYPE" speedFactor="0.88" vaporized=""/>
    <tripinfo id="18" depart="3.00" departLane="102_4way_40to4way_41_0" departPos="5.10" departSpeed="0.00" departDelay="0.14" arrival="38.00" arrivalLane="95_4way_43to4way_34_0" arrivalPos="85.60" arrivalSpeed="12.07" duration="35.00" routeLength="375.13" waitingTime="0.00" waitingCount="0" stopTime="0.00" timeLoss="5.72" rerouteNo="0" devices="tripinfo_18" vType="DEFAULT_VEHTYPE" speedFactor="0.96" vaporized=""/>
    <tripinfo id="22" depart="4.00" departLane="56_4way_10to3way_9_0" departPos="5.10" departSpeed="0.00" departDelay="0.51" arrival="38.00" arrivalLane="14_3way_27to3way_36_0" arrivalPos="85.60" arrivalSpeed="12.78" duration="34.00" routeLength="375.13" waitingTime="0.00" waitingCount="0" stopTime="0.00" timeLoss="5.71" rerouteNo="0" devices="tripinfo_22" vType="DEFAULT_VEHTYPE" speedFactor="1.00" vaporized=""/>
    <tripinfo id="212" depart="34.00" departLane="109_4way_46to4way_47_0" departPos="5.10" departSpeed="0.00" departDelay="0.36" arrival="43.00" arrivalLane="109_4way_46to4way_47_0" arrivalPos="85.60" arrivalSpeed="13.38" duration="9.00" routeLength="80.50" waitingTime="0.00" waitingCount="0" stopTime="0.00" timeLoss="3.06" rerouteNo="0" devices="tripinfo_212" vType="DEFAULT_VEHTYPE" speedFactor="1.00" vaporized=""/>
    <tripinfo id="171" depart="28.00" departLane="17_3way_3to4way_12_0" departPos="5.10" departSpeed="0.00" departDelay="0.86" arrival="47.00" arrivalLane="61_4way_12to4way_13_0" arrivalPos="85.60" arrivalSpeed="14.33" duration="19.00" routeLength="175.13" waitingTime="0.00" waitingCount="0" stopTime="0.00" timeLoss="5.99" rerouteNo="0" devices="tripinfo_171" vType="DEFAULT_VEHTYPE" speedFactor="1.04" vaporized=""/>
    <tripinfo id="252" depart="40.00" departLane="126_4way_58to4way_57_0" departPos="5.10" departSpeed="0.00" departDelay="0.01" arrival="50.00" arrivalLane="126_4way_58to4way_57_0" arrivalPos="85.60" arrivalSpeed="12.98" duration="10.00" routeLength="80.50" waitingTime="0.00" waitingCount="0" stopTime="0.00" timeLoss="3.28" rerouteNo="0" devices="tripinfo_252" vType="DEFAULT_VEHTYPE" speedFactor="0.98" vaporized=""/>
    <tripinfo id="257" depart="41.00" departLane="3_4way_10to3way_1_0" departPos="5.10" departSpeed="0.00" departDelay="0.21" arrival="51.00" arrivalLane="3_4way_10to3way_1_0" arrivalPos="85.60" arrivalSpeed="10.85" duration="10.00" routeLength="80.50" waitingTime="0.00" waitingCount="0" stopTime="0.00" timeLoss="2.51" rerouteNo="0" devices="tripinfo_257" vType="DEFAULT_VEHTYPE" speedFactor="0.83" vaporized=""/>
    <tripinfo id="112" depart="18.00" departLane="66_4way_14to4way_23_0" departPos="5.10" departSpeed="0.00" departDelay="0.23" arrival="53.00" arrivalLane="93_4way_33to4way_34_0" arrivalPos="85.60" arrivalSpeed="13.06" duration="35.00" routeLength="375.13" waitingTime="0.00" waitingCount="0" stopTime="0.00" timeLoss="5.45" rerouteNo="0" devices="tripinfo_112" vType="DEFAULT_VEHTYPE" speedFactor="0.95" vaporized=""/>
    <tripinfo id="307" depart="49.00" departLane="132_4way_60to4way_61_0" departPos="5.10" departSpeed="0.00" departDelay="0.28" arrival="58.00" arrivalLane="132_4way_60to4way_61_0" arrivalPos="85.60" arrivalSpeed="13.46" duration="9.00" routeLength="80.50" waitingTime="0.00" waitingCount="0" stopTime="0.00" timeLoss="3.24" rerouteNo="0" devices="tripinfo_307" vType="DEFAULT_VEHTYPE" speedFactor="1.04" vaporized=""/>
    <tripinfo id="315" depart="50.00" departLane="93_4way_34to4way_33_0" departPos="5.10" departSpeed="0.00" departDelay="0.01" arrival="59.00" arrivalLane="93_4way_34to4way_33_0" arrivalPos="85.60" arrivalSpeed="12.56" duration="9.00" routeLength="80.50" waitingTime="0.00" waitingCount="0" stopTime="0.00" timeLoss="2.74" rerouteNo="0" devices="tripinfo_315" vType="DEFAULT_VEHTYPE" speedFactor="0.93" vaporized=""/>
    <tripinfo id="283" depart="45.00" departLane="132_4way_60to4way_61_0" departPos="5.10" departSpeed="0.00" departDelay="0.09" arrival="61.00" arrivalLane="37_4way_61to3way_62_0" arrivalPos="85.60" arrivalSpeed="13.32" duration="16.00" routeLength="180.50" waitingTime="0.00" waitingCount="0" stopTime="0.00" timeLoss="3.32" rerouteNo="0" devices="tripinfo_283" vType="DEFAULT_VEHTYPE" speedFactor="1.04" vaporized=""/>
    <tripinfo id="232" depart="37.00" departLane="79_4way_23to4way_32_0" departPos="5.10" departSpeed="0.00" departDelay="0.18" arrival="62.00" arrivalLane="93_4way_33to4way_34_0" arrivalPos="85.60" arrivalSpeed="14.05" duration="25.00" routeLength="275.13" waitingTime="0.00" waitingCount="0" stopTime="0.00" timeLoss="5.53" rerouteNo="0" devices="tripinfo_232" vType="DEFAULT_VEHTYPE" speedFactor="1.06" vaporized=""/>
    <tripinfo id="153" depart="26.00" departLane="24_3way_53to3way_44_0" departPos="5.10" departSpeed="0.00" departDelay="1.72" arrival="63.00" arrivalLane="104_4way_42to4way_41_0" arrivalPos="85.60" arrivalSpeed="11.73" duration="37.00" routeLength="375.13" waitingTime="0.00" waitingCount="0" stopTime="0.00" timeLoss="6.42" rerouteNo="0" devices="tripinfo_153" vType="DEFAULT_VEHTYPE" speedFactor="0.90" vaporized=""/>
    <tripinfo id="218" depart="35.00" departLane="132_4way_61to4way_60_0" departPos="5.10" departSpeed="0.00" departDelay="0.40" arrival="63.00" arrivalLane="131_4way_59to4way_68_0" arrivalPos="85.60" arrivalSpeed="12.20" duration="28.00" routeLength="275.13" waitingTime="0.00" waitingCount="0" stopTime="0.00" timeLoss="5.71" rerouteNo="0" devices="tripinfo_218" vType="DEFAULT_VEHTYPE" speedFactor="0.96" vaporized=""/>
    <tripinfo id="327" depart="54.00" departLane="84_4way_28to4way_37_0" departPos="5.10" departSpeed="0.00" departDelay="2.10" arrival="64.00" arrivalLane="84_4way_28to4way_37_0" arrivalPos="85.60" arrivalSpeed="12.11" duration="10.00" routeLength="80.50" waitingTime="0.00" waitingCount="0" stopTime="0.00" timeLoss="3.21" rerouteNo="0" devices="tripinfo_327" vType="DEFAULT_VEHTYPE" speedFactor="0.95" vaporized=""/>
    <tripinfo id="189" depart="30.00" departLane="37_3way_62to4way_61_0" departPos="5.10" departSpeed="0.00" departDelay="0.01" arrival="67.00" arrivalLane="131_4way_59to4way_68_0" arrivalPos="85.60" arrivalSpeed="11.77" duration="37.00" routeLength="375.13" waitingTime="0.00" waitingCount="0" stopTime="0.00" timeLoss="6.40" rerouteNo="0" devices="tripinfo_189" vType="DEFAULT_VEHTYPE" speedFactor="0.92" vaporized=""/>
    <tripinfo id="312" depart="50.00" departLane="106_4way_43to4way_42_0" departPos="5.10" departSpeed="0.00" departDelay="0.49" arrival="67.00" arrivalLane="104_4way_42to4way_41_0" arrivalPos="85.60" arrivalSpeed="12.63" duration="17.00" routeLength="180.50" waitingTime="0.00" waitingCount="0" stopTime="0.00" timeLoss="3.23" rerouteNo="0" devices="tripinfo_312" vType="DEFAULT_VEHTYPE" speedFactor="0.98" vaporized=""/>
    <tripinfo id="301" depart="48.00" departLane="25_3way_44to4way_43_0" departPos="5.10" departSpeed="0.00" departDelay="0.23" arrival="68.00" arrivalLane="108_4way_43to4way_52_0" arrivalPos="85.60" arrivalSpeed="12.18" duration="20.00" routeLength="175.13" waitingTime="0.00" waitingCount="0" stopTime="0.00" timeLoss="4.57" rerouteNo="0" devices="tripinfo_301" vType="DEFAULT_VEHTYPE" speedFactor="0.92" vaporized=""/>
    <tripinfo id="19" depart="4.00" departLane="33_4way_55to3way_54_0" departPos="5.10" departSpeed="0.00" departDelay="0.98" arrival="70.00" arrivalLane="8_3way_18to3way_9_0" arrivalPos="85.60" arrivalSpeed="5.78" duration="66.00" routeLength="580.29" waitingTime="8.00" waitingCount="1" stopTime="0.00" timeLoss="17.94" rerouteNo="0" devices="tripinfo_19" vType="DEFAULT_VEHTYPE" speedFactor="0.89" vaporized=""/>
    <tripinfo id="66" depart="11.00" departLane="74_4way_22to4way_21_0" departPos="5.10" departSpeed="0.00" departDelay="0.53" arrival="70.00" arrivalLane="75_4way_21to4way_30_0" arrivalPos="85.60" arrivalSpeed="4.78" duration="59.00" routeLength="175.13" waitingTime="34.00" waitingCount="1" stopTime="0.00" timeLoss="43.32" rerouteNo="0" devices="tripinfo_66" vType="DEFAULT_VEHTYPE" speedFactor="0.86" vaporized=""/>
    <tripinfo id="96" depart="16.00" departLane="45_3way_74to3way_75_0" departPos="5.10" departSpeed="0.00" departDelay="0.76" arrival="70.00" arrivalLane="47_3way_75to3way_76_0" arrivalPos="85.60" arrivalSpeed="6.13" duration="54.00" routeLength="180.50" waitingTime="32.00" waitingCount="1" stopTime="0.00" timeLoss="40.05" rerouteNo="0" devices="tripinfo_96" vType="DEFAULT_VEHTYPE" speedFactor="0.95" vaporized=""/>
    <tripinfo id="311" depart="50.00" departLane="122_4way_56to4way_55_0" departPos="5.10" departSpeed="0.00" departDelay="0.64" arrival="70.00" arrivalLane="122_4way_56to4way_55_0" arrivalPos="85.60" arrivalSpeed="4.76" duration="20.00" routeLength="80.50" waitingTime="6.00" waitingCount="1" stopTime="0.00" timeLoss="14.40" rerouteNo="0" devices="tripinfo_311" vType="DEFAULT_VEHTYPE" speedFactor="1.04" vaporized=""/>
    <tripinfo id="313" depart="50.00" departLane="12_3way_26to3way_35_0" departPos="5.10" departSpeed="0.00" departDelay="0.33" arrival="70.00" arrivalLane="12_3way_26to3way_35_0" arrivalPos="85.60" arrivalSpeed="5.57" duration="20.00" routeLength="80.50" waitingTime="7.00" waitingCount="1" stopTime="0.00" timeLoss="13.35" rerouteNo="0" devices="tripinfo_313" vType="DEFAULT_VEHTYPE" speedFactor="0.90" vaporized=""/>
    <tripinfo id="335" depart="55.00" departLane="21_3way_36to4way_37_0" departPos="5.10" departSpeed="0.00" departDelay="1.83" arrival="70.00" arrivalLane="21_3way_36to4way_37_0" arrivalPos="85.60" arrivalSpeed="6.15" duration="15.00" routeLength="80.50" waitingTime="2.00" waitingCount="1" stopTime="0.00" timeLoss="8.24" rerouteNo="0" devices="tripinfo_335" vType="DEFAULT_VEHTYPE" speedFactor="0.90" vaporized=""/>
    <tripinfo id="205" depart="33.00" departLane="134_4way_70to4way_61_0" departPos="5.10" departSpeed="0.00" departDelay="0.47" arrival="71.00" arrivalLane="134_4way_70to4way_61_0" arrivalPos="85.60" arrivalSpeed="7.48" duration="38.00" routeLength="80.50" waitingTime="23.00" waitingCount="1" stopTime="0.00" timeLoss="30.99" rerouteNo="0" devices="tripinfo_205" vType="DEFAULT_VEHTYPE" speedFactor="0.90" vaporized=""/>
    <tripinfo id="394" depart="63.00" departLane="23_4way_13to3way_4_0" departPos="5.10" departSpeed="0.00" departDelay="0.47" arrival="72.00" arrivalLane="23_4way_13to3way_4_0" arrivalPos="85.60" arrivalSpeed="12.91" duration="9.00" routeLength="80.50" waitingTime="0.00" waitingCount="0" stopTime="0.00" timeLoss="3.20" rerouteNo="0" devices="tripinfo_394" vType="DEFAULT_VEHTYPE" speedFactor="1.02" vaporized=""/>
    <tripinfo id="118" depart="19.00" departLane="19_3way_35to4way_34_0" departPos="5.10" departSpeed="0.00" departDelay="0.27" arrival="73.00" arrivalLane="94_4way_33to4way_42_0" arrivalPos="85.60" arrivalSpeed="7.74" duration="54.00" routeLength="275.13" waitingTime="22.00" waitingCount="1" stopTime="0.00" timeLoss="34.26" rerouteNo="0" devices="tripinfo_118" vType="DEFAULT_VEHTYPE" speedFactor="1.05" vaporized=""/>
    <tripinfo id="184" depart="31.00" departLane="106_4way_43to4way_42_0" departPos="5.10" departSpeed="0.00" departDelay="1.80" arrival="73.00" arrivalLane="118_4way_50to4way_59_0" arrivalPos="85.60" arrivalSpeed="8.20" duration="42.00" routeLength="375.13" waitingTime="2.00" waitingCount="1" stopTime="0.00" timeLoss="14.80" rerouteNo="0" devices="tripinfo_184" vType="DEFAULT_VEHTYPE" speedFactor="1.02" vaporized=""/>
    <tripinfo id="352" depart="56.00" departLane="122_4way_56to4way_55_0" departPos="5.10" departSpeed="0.00" departDelay="0.14" arrival="73.00" arrivalLane="122_4way_56to4way_55_0" arrivalPos="85.60" arrivalSpeed="9.61" duration="17.00" routeLength="80.50" waitingTime="2.00" waitingCount="1" stopTime="0.00" timeLoss="11.10" rerouteNo="0" devices="tripinfo_352" vType="DEFAULT_VEHTYPE" speedFactor="1.10" vaporized=""/>
    <tripinfo id="103" depart="17.00" departLane="51_3way_77to3way_78_0" departPos="5.10" departSpeed="0.00" departDelay="0.65" arrival="75.00" arrivalLane="55_3way_79to4way_70_0" arrivalPos="85.60" arrivalSpeed="9.09" duration="58.00" routeLength="275.13" waitingTime="28.00" waitingCount="1" stopTime="0.00" timeLoss="39.50" rerouteNo="0" devices="tripinfo_103" vType="DEFAULT_VEHTYPE" speedFactor="1.15" vaporized=""/>
    <tripinfo id="266" depart="43.00" departLane="101_4way_39to4way_48_0" departPos="5.10" departSpeed="0.00" departDelay="0.79" arrival="75.00" arrivalLane="101_4way_39to4way_48_0" arrivalPos="85.60" arrivalSpeed="7.77" duration="32.00" routeLength="80.50" waitingTime="16.00" waitingCount="1" stopTime="0.00" timeLoss="25.87" rerouteNo="0" devices="tripinfo_266" vType="DEFAULT_VEHTYPE" speedFactor="0.97" vaporized=""/>
    <tripinfo id="372" depart="60.00" departLane="3_3way_1to4way_10_0" departPos="5.10" departSpeed="0.00" departDelay="0.96" arrival="75.00" arrivalLane="3_3way_1to4way_10_0" arrivalPos="85.60" arrivalSpeed="9.31" duration="15.00" routeLength="80.50" waitingTime="0.00" waitingCount="0" stopTime="0.00" timeLoss="8.31" rerouteNo="0" devices="tripinfo_372" vType="DEFAULT_VEHTYPE" speedFactor="0.96" vaporized=""/>
    <tripinfo id="410" depart="66.00" departLane="63_4way_13to4way_14_0" departPos="5.10" departSpeed="0.00" departDelay="0.93" arrival="75.00" arrivalLane="63_4way_13to4way_14_0" arrivalPos="85.60" arrivalSpeed="15.90" duration="9.00" routeLength="80.50" waitingTime="0.00" waitingCount="0" stopTime="0.00" timeLoss="4.05" rerouteNo="0" devices="tripinfo_410" vType="DEFAULT_VEHTYPE" speedFactor="1.21" vaporized=""/>
    <tripinfo id="65" depart="11.00" departLane="88_4way_39to4way_30_0" departPos="5.10" departSpeed="0.00" departDelay="0.68" arrival="76.00" arrivalLane="75_4way_30to4way_21_0" arrivalPos="85.60" arrivalSpeed="15.82" duration="65.00" routeLength="180.50" waitingTime="44.00" waitingCount="1" stopTime="0.00" timeLoss="53.93" rerouteNo="0" devices="tripinfo_65" vType="DEFAULT_VEHTYPE" speedFactor="1.20" vaporized=""/>
    <tripinfo id="207" depart="33.00" departLane="85_4way_29to4way_30_0" departPos="5.10" departSpeed="0.00" departDelay="0.15" arrival="76.00" arrivalLane="64_4way_22to4way_13_0" arrivalPos="85.60" arrivalSpeed="16.92" duration="43.00" routeLength="375.13" waitingTime="8.00" waitingCount="1" stopTime="0.00" timeLoss="20.50" rerouteNo="0" devices="tripinfo_207" vType="DEFAULT_VEHTYPE" speedFactor="1.24" vaporized=""/>
    <tripinfo id="14" depart="3.00" departLane="97_4way_37to4way_46_0" departPos="5.10" departSpeed="0.00" departDelay="0.78" arrival="77.00" arrivalLane="122_4way_55to4way_56_0" arrivalPos="85.60" arrivalSpeed="11.66" duration="74.00" routeLength="275.13" waitingTime="40.00" waitingCount="1" stopTime="0.00" timeLoss="51.88" rerouteNo="0" devices="tripinfo_14" vType="DEFAULT_VEHTYPE" speedFactor="0.95" vaporized=""/>
    <tripinfo id="133" depart="22.00" departLane="120_4way_51to4way_60_0" departPos="5.10" departSpeed="0.00" departDelay="0.89" arrival="77.00" arrivalLane="132_4way_60to4way_61_0" arrivalPos="85.60" arrivalSpeed="12.73" duration="55.00" routeLength="175.13" waitingTime="33.00" waitingCount="1" stopTime="0.00" timeLoss="41.14" rerouteNo="0" devices="tripinfo_133" vType="DEFAULT_VEHTYPE" speedFactor="1.01" vaporized=""/>
    <tripinfo id="196" depart="32.00" departLane="19_4way_34to3way_35_0" departPos="5.10" departSpeed="0.00" departDelay="0.89" arrival="77.00" arrivalLane="4_3way_26to3way_17_0" arrivalPos="85.60" arrivalSpeed="13.93" duration="45.00" routeLength="275.13" waitingTime="14.00" waitingCount="1" stopTime="0.00" timeLoss="25.81" rerouteNo="0" devices="tripinfo_196" vType="DEFAULT_VEHTYPE" speedFactor="1.07" vaporized=""/>
    <tripinfo id="255" depart="41.00" departLane="39_3way_63to4way_64_0" departPos="5.10" departSpeed="0.00" departDelay="0.53" arrival="77.00" arrivalLane="135_4way_64to4way_65_0" arrivalPos="85.60" arrivalSpeed="9.77" duration="36.00" routeLength="180.50" waitingTime="9.00" waitingCount="1" stopTime="0.00" timeLoss="18.49" rerouteNo="0" devices="tripinfo_255" vType="DEFAULT_VEHTYPE" speedFactor="0.76" vaporized=""/>
    <tripinfo id="424" depart="68.00" departLane="82_4way_25to4way_34_0" departPos="5.10" departSpeed="0.00" departDelay="0.71" arrival="77.00" arrivalLane="82_4way_25to4way_34_0" arrivalPos="85.60" arrivalSpeed="12.60" duration="9.00" routeLength="80.50" waitingTime="0.00" waitingCount="0" stopTime="0.00" timeLoss="2.98" rerouteNo="0" devices="tripinfo_424" vType="DEFAULT_VEHTYPE" speedFactor="0.98" vaporized=""/>
    <tripinfo id="31" depart="7.00" departLane="6_3way_17to4way_16_0" departPos="5.10" departSpeed="0.00" departDelay="2.08" arrival="78.00" arrivalLane="67_4way_16to4way_15_0" arrivalPos="85.60" arrivalSpeed="14.54" duration="71.00" routeLength="180.50" waitingTime="48.00" waitingCount="1" stopTime="0.00" timeLoss="59.19" rerouteNo="0" devices="tripinfo_31" vType="DEFAULT_VEHTYPE" speedFactor="1.11" vaporized=""/>
    <tripinfo id="35" depart="6.00" departLane="23_3way_4to4way_13_0" departPos="5.10" departSpeed="0.00" departDelay="0.44" arrival="78.00" arrivalLane="63_4way_13to4way_14_0" arrivalPos="85.60" arrivalSpeed="12.06" duration="72.00" routeLength="175.13" waitingTime="51.00" waitingCount="1" stopTime="0.00" timeLoss="57.80" rerouteNo="0" devices="tripinfo_35" vType="DEFAULT_VEHTYPE" speedFactor="0.94" vaporized=""/>
    <tripinfo id="249" depart="40.00" departLane="44_4way_64to3way_73_0" departPos="5.10" departSpeed="0.00" departDelay="0.48" arrival="78.00" arrivalLane="43_3way_73to3way_74_0" arrivalPos="85.60" arrivalSpeed="9.79" duration="38.00" routeLength="175.13" waitingTime="16.00" waitingCount="1" stopTime="0.00" timeLoss="26.02" rerouteNo="0" devices="tripinfo_249" vType="DEFAULT_VEHTYPE" speedFactor="1.12" vaporized=""/>
    <tripinfo id="288" depart="46.00" departLane="22_3way_5to3way_4_0" departPos="5.10" departSpeed="0.00" departDelay="0.29" arrival="78.00" arrivalLane="22_3way_5to3way_4_0" arrivalPos="85.60" arrivalSpeed="8.37" duration="32.00" routeLength="80.50" waitingTime="15.00" waitingCount="1" stopTime="0.00" timeLoss="24.71" rerouteNo="0" devices="tripinfo_288" vType="DEFAULT_VEHTYPE" speedFactor="0.82" vaporized=""/>
    <tripinfo id="70" depart="12.00" departLane="129_4way_58to4way_67_0" departPos="5.10" departSpeed="0.00" departDelay="0.89" arrival="79.00" arrivalLane="138_4way_67to4way_68_0" arrivalPos="85.60" arrivalSpeed="9.23" duration="67.00" routeLength="175.13" waitingTime="43.00" waitingCount="1" stopTime="0.00" timeLoss="48.76" rerouteNo="0" devices="tripinfo_70" vType="DEFAULT_VEHTYPE" speedFactor="0.75" vaporized=""/>
    <tripinfo id="276" depart="44.00" departLane="120_4way_51to4way_60_0" departPos="5.10" departSpeed="0.00" departDelay="0.20" arrival="79.00" arrivalLane="132_4way_60to4way_61_0" arrivalPos="85.60" arrivalSpeed="13.39" duration="35.00" routeLength="175.13" waitingTime="13.00" waitingCount="1" stopTime="0.00" timeLoss="21.54" rerouteNo="0" devices="tripinfo_276" vType="DEFAULT_VEHTYPE" speedFactor="1.02" vaporized=""/>
    <tripinfo id="202" depart="35.00" departLane="45_3way_74to3way_75_0" departPos="5.10" departSpeed="0.00" departDelay="2.94" arrival="80.00" arrivalLane="47_3way_75to3way_76_0" arrivalPos="85.60" arrivalSpeed="8.19" duration="45.00" routeLength="180.50" waitingTime="19.00" waitingCount="1" stopTime="0.00" timeLoss="30.43" rerouteNo="0" devices="tripinfo_202" vType="DEFAULT_VEHTYPE" speedFactor="0.90" vaporized=""/>
    <tripinfo id="245" depart="39.00" departLane="56_4way_10to3way_9_0" departPos="5.10" departSpeed="0.00" departDelay="0.12" arrival="80.00" arrivalLane="20_3way_36to3way_45_0" arrivalPos="85.60" arrivalSpeed="15.77" duration="41.00" routeLength="475.13" waitingTime="0.00" waitingCount="0" stopTime="0.00" timeLoss="10.31" rerouteNo="0" devices="tripinfo_245" vType="DEFAULT_VEHTYPE" speedFactor="1.15" vaporized=""/>
    <tripinfo id="363" depart="58.00" departLane="30_3way_62to3way_53_0" departPos="5.10" departSpeed="0.00" departDelay="0.39" arrival="80.00" arrivalLane="18_3way_44to3way_35_0" arrivalPos="85.60" arrivalSpeed="16.02" duration="22.00" routeLength="280.50" waitingTime="0.00" waitingCount="0" stopTime="0.00" timeLoss="4.66" rerouteNo="0" devices="tripinfo_363" vType="DEFAULT_VEHTYPE" speedFactor="1.21" vaporized=""/>
    <tripinfo id="233" depart="37.00" departLane="119_4way_52to4way_51_0" departPos="5.10" departSpeed="0.00" departDelay="0.02" arrival="82.00" arrivalLane="115_4way_50to4way_49_0" arrivalPos="85.60" arrivalSpeed="11.08" duration="45.00" routeLength="280.50" waitingTime="12.00" waitingCount="1" stopTime="0.00" timeLoss="20.67" rerouteNo="0" devices="tripinfo_233" vType="DEFAULT_VEHTYPE" speedFactor="0.83" vaporized=""/>
    <tripinfo id="271" depart="44.00" departLane="122_4way_56to4way_55_0" departPos="5.10" departSpeed="0.00" departDelay="0.99" arrival="82.00" arrivalLane="123_4way_55to4way_64_0" arrivalPos="85.60" arrivalSpeed="10.01" duration="38.00" routeLength="175.13" waitingTime="10.00" waitingCount="1" stopTime="0.00" timeLoss="23.27" rerouteNo="0" devices="tripinfo_271" vType="DEFAULT_VEHTYPE" speedFactor="0.90" vaporized=""/>
    <tripinfo id="113" depart="18.00" departLane="49_3way_77to3way_76_0" departPos="5.10" departSpeed="0.00" departDelay="0.07" arrival="83.00" arrivalLane="45_3way_75to3way_74_0" arrivalPos="85.60" arrivalSpeed="14.25" duration="65.00" routeLength="280.50" waitingTime="36.00" waitingCount="1" stopTime="0.00" timeLoss="45.98" rerouteNo="0" devices="tripinfo_113" vType="DEFAULT_VEHTYPE" speedFactor="1.10" vaporized=""/>
    <tripinfo id="361" depart="58.00" departLane="100_4way_40to4way_39_0" departPos="5.10" departSpeed="0.00" departDelay="0.71" arrival="83.00" arrivalLane="98_4way_39to4way_38_0" arrivalPos="85.60" arrivalSpeed="11.52" duration="25.00" routeLength="180.50" waitingTime="0.00" waitingCount="0" stopTime="0.00" timeLoss="9.27" rerouteNo="0" devices="tripinfo_361" vType="DEFAULT_VEHTYPE" speedFactor="0.87" vaporized=""/>
    <tripinfo id="1" depart="1.00" departLane="136_4way_65to4way_66_0" departPos="5.10" departSpeed="0.00" departDelay="0.84" arrival="84.00" arrivalLane="114_4way_57to4way_48_0" arrivalPos="85.60" arrivalSpeed="13.46" duration="83.00" routeLength="275.13" waitingTime="55.00" waitingCount="1" stopTime="0.00" timeLoss="63.10" rerouteNo="0" devices="tripinfo_1" vType="DEFAULT_VEHTYPE" speedFactor="1.04" vaporized=""/>