<?xml version="1.0" encoding="UTF-8"?>

<!-- generated on 2023-08-03 03:33:33 by Eclipse SUMO sumo Version 1.12.0
<configuration xmlns:xsi="http://www.w3.org/2001/XMLSchema-instance" xsi:noNamespaceSchemaLocation="http://sumo.dlr.de/xsd/sumoConfiguration.xsd">

    <input>
        <net-file value="../../data_generation/sq.net.xml"/>
        <route-files value="../../data_generation/sq.rou.xml"/>
    </input>

    <output>
        <tripinfo-output value="tripinfo.xml"/>
        <statistic-output value="statistic.xml"/>
    </output>

    <time>
        <begin value="0"/>
        <end value="3600"/>
    </time>

    <processing>
        <time-to-teleport value="-1"/>
    </processing>

    <traci_server>
        <remote-port value="55155"/>
    </traci_server>

    <random_number>
        <seed value="1395"/>
    </random_number>

    <gui_only>
        <gui-settings-file value="../../data_generation/view_HY_0402.xml"/>
    </gui_only>

</configuration>
-->

<tripinfos xmlns:xsi="http://www.w3.org/2001/XMLSchema-instance" xsi:noNamespaceSchemaLocation="http://sumo.dlr.de/xsd/tripinfo_file.xsd">
    <tripinfo id="22" depart="3.00" departLane="478_4way_291to4way_271_0" departPos="5.10" departSpeed="0.00" departDelay="0.56" arrival="13.00" arrivalLane="478_4way_291to4way_271_0" arrivalPos="85.60" arrivalSpeed="13.10" duration="10.00" routeLength="80.50" waitingTime="0.00" waitingCount="0" stopTime="0.00" timeLoss="3.35" rerouteNo="0" devices="tripinfo_22" vType="DEFAULT_VEHTYPE" speedFactor="1.00" vaporized=""/>
    <tripinfo id="18" depart="5.00" departLane="359_4way_230to4way_210_0" departPos="5.10" departSpeed="0.00" departDelay="3.00" arrival="24.00" arrivalLane="322_4way_210to4way_190_0" arrivalPos="85.60" arrivalSpeed="11.03" duration="19.00" routeLength="180.50" waitingTime="0.00" waitingCount="0" stopTime="0.00" timeLoss="4.72" rerouteNo="0" devices="tripinfo_18" vType="DEFAULT_VEHTYPE" speedFactor="0.96" vaporized=""/>
    <tripinfo id="160" depart="18.00" departLane="90_3way_382to4way_362_0" departPos="5.10" departSpeed="0.00" departDelay="0.22" arrival="28.00" arrivalLane="90_3way_382to4way_362_0" arrivalPos="85.60" arrivalSpeed="11.87" duration="10.00" routeLength="80.50" waitingTime="0.00" waitingCount="0" stopTime="0.00" timeLoss="2.64" rerouteNo="0" devices="tripinfo_160" vType="DEFAULT_VEHTYPE" speedFactor="0.88" vaporized=""/>
    <tripinfo id="27" depart="3.00" departLane="41_3way_180to3way_200_0" departPos="5.10" departSpeed="0.00" departDelay="0.00" arrival="29.00" arrivalLane="54_3way_220to4way_221_0" arrivalPos="85.60" arrivalSpeed="14.27" duration="26.00" routeLength="275.13" waitingTime="0.00" waitingCount="0" stopTime="0.00" timeLoss="5.66" rerouteNo="0" devices="tripinfo_27" vType="DEFAULT_VEHTYPE" speedFactor="1.03" vaporized=""/>
    <tripinfo id="167" depart="19.00" departLane="697_4way_54to4way_74_0" departPos="5.10" departSpeed="0.00" departDelay="0.45" arrival="29.00" arrivalLane="697_4way_54to4way_74_0" arrivalPos="85.60" arrivalSpeed="10.76" duration="10.00" routeLength="80.50" waitingTime="0.00" waitingCount="0" stopTime="0.00" timeLoss="2.92" rerouteNo="0" devices="tripinfo_167" vType="DEFAULT_VEHTYPE" speedFactor="0.85" vaporized=""/>
    <tripinfo id="198" depart="22.00" departLane="540_4way_324to4way_304_0" departPos="5.10" departSpeed="0.00" departDelay="0.00" arrival="32.00" arrivalLane="540_4way_324to4way_304_0" arrivalPos="85.60" arrivalSpeed="11.57" duration="10.00" routeLength="80.50" waitingTime="0.00" waitingCount="0" stopTime="0.00" timeLoss="3.14" rerouteNo="0" devices="tripinfo_198" vType="DEFAULT_VEHTYPE" speedFactor="0.87" vaporized=""/>
    <tripinfo id="303" depart="34.00" departLane="148_4way_102to4way_103_0" departPos="5.10" departSpeed="0.00" departDelay="0.34" arrival="44.00" arrivalLane="148_4way_102to4way_103_0" arrivalPos="85.60" arrivalSpeed="12.95" duration="10.00" routeLength="80.50" waitingTime="0.00" waitingCount="0" stopTime="0.00" timeLoss="3.72" rerouteNo="0" devices="tripinfo_303" vType="DEFAULT_VEHTYPE" speedFactor="1.02" vaporized=""/>
    <tripinfo id="93" depart="11.00" departLane="628_4way_369to4way_349_0" departPos="5.10" departSpeed="0.00" departDelay="0.67" arrival="46.00" arrivalLane="547_4way_309to4way_308_0" arrivalPos="85.60" arrivalSpeed="13.82" duration="35.00" routeLength="375.13" waitingTime="0.00" waitingCount="0" stopTime="0.00" timeLoss="6.66" rerouteNo="0" devices="tripinfo_93" vType="DEFAULT_VEHTYPE" speedFactor="1.00" vaporized=""/>
    <tripinfo id="332" depart="37.00" departLane="542_4way_305to4way_325_0" departPos="5.10" departSpeed="0.00" departDelay="0.11" arrival="47.00" arrivalLane="542_4way_305to4way_325_0" arrivalPos="85.60" arrivalSpeed="11.42" duration="10.00" routeLength="80.50" waitingTime="0.00" waitingCount="0" stopTime="0.00" timeLoss="2.81" rerouteNo="0" devices="tripinfo_332" vType="DEFAULT_VEHTYPE" speedFactor="0.83" vaporized=""/>
    <tripinfo id="7" depart="1.00" departLane="77_3way_359to3way_339_0" departPos="5.10" departSpeed="0.00" departDelay="0.22" arrival="51.00" arrivalLane="55_3way_259to3way_239_0" arrivalPos="85.60" arrivalSpeed="12.19" duration="50.00" routeLength="580.50" waitingTime="0.00" waitingCount="0" stopTime="0.00" timeLoss="5.18" rerouteNo="0" devices="tripinfo_7" vType="DEFAULT_VEHTYPE" speedFactor="0.95" vaporized=""/>
    <tripinfo id="156" depart="18.00" departLane="81_3way_379to3way_359_0" departPos="5.10" departSpeed="0.00" departDelay="0.67" arrival="53.00" arrivalLane="67_3way_319to3way_299_0" arrivalPos="85.60" arrivalSpeed="12.02" duration="35.00" routeLength="380.50" waitingTime="0.00" waitingCount="0" stopTime="0.00" timeLoss="4.50" rerouteNo="0" devices="tripinfo_156" vType="DEFAULT_VEHTYPE" speedFactor="0.91" vaporized=""/>
    <tripinfo id="324" depart="36.00" departLane="120_3way_396to4way_376_0" departPos="5.10" departSpeed="0.00" departDelay="0.00" arrival="55.00" arrivalLane="666_4way_376to4way_375_0" arrivalPos="85.60" arrivalSpeed="13.87" duration="19.00" routeLength="175.13" waitingTime="0.00" waitingCount="0" stopTime="0.00" timeLoss="5.59" rerouteNo="0" devices="tripinfo_324" vType="DEFAULT_VEHTYPE" speedFactor="1.05" vaporized=""/>
    <tripinfo id="351" depart="39.00" departLane="73_3way_339to3way_319_0" departPos="5.10" departSpeed="0.00" departDelay="0.00" arrival="58.00" arrivalLane="67_3way_319to3way_299_0" arrivalPos="85.60" arrivalSpeed="11.53" duration="19.00" routeLength="180.50" waitingTime="0.00" waitingCount="0" stopTime="0.00" timeLoss="3.15" rerouteNo="0" devices="tripinfo_351" vType="DEFAULT_VEHTYPE" speedFactor="0.85" vaporized=""/>
    <tripinfo id="149" depart="17.00" departLane="739_4way_78to4way_98_0" departPos="5.10" departSpeed="0.00" departDelay="0.45" arrival="59.00" arrivalLane="267_4way_158to4way_178_0" arrivalPos="85.60" arrivalSpeed="12.57" duration="42.00" routeLength="480.50" waitingTime="0.00" waitingCount="0" stopTime="0.00" timeLoss="5.16" rerouteNo="0" devices="tripinfo_149" vType="DEFAULT_VEHTYPE" speedFactor="0.95" vaporized=""/>
    <tripinfo id="445" depart="50.00" departLane="465_4way_267to4way_266_0" departPos="5.10" departSpeed="0.00" departDelay="0.56" arrival="59.00" arrivalLane="465_4way_267to4way_266_0" arrivalPos="85.60" arrivalSpeed="14.07" duration="9.00" routeLength="80.50" waitingTime="0.00" waitingCount="0" stopTime="0.00" timeLoss="3.22" rerouteNo="0" devices="tripinfo_445" vType="DEFAULT_VEHTYPE" speedFactor="1.02" vaporized=""/>
    <tripinfo id="163" depart="19.00" departLane="179_4way_132to4way_112_0" departPos="5.10" departSpeed="0.00" departDelay="0.89" arrival="61.00" arrivalLane="571_4way_52to4way_32_0" arrivalPos="85.60" arrivalSpeed="11.86" duration="42.00" routeLength="480.50" waitingTime="0.00" waitingCount="0" stopTime="0.00" timeLoss="4.63" rerouteNo="0" devices="tripinfo_163" vType="DEFAULT_VEHTYPE" speedFactor="0.94" vaporized=""/>
    <tripinfo id="318" depart="36.00" departLane="109_3way_392to3way_391_0" departPos="5.10" departSpeed="0.00" departDelay="0.67" arrival="67.00" arrivalLane="101_3way_389to3way_388_0" arrivalPos="85.60" arrivalSpeed="13.01" duration="31.00" routeLength="380.50" waitingTime="0.00" waitingCount="0" stopTime="0.00" timeLoss="3.92" rerouteNo="0" devices="tripinfo_318" vType="DEFAULT_VEHTYPE" speedFactor="1.01" vaporized=""/>
    <tripinfo id="126" depart="14.00" departLane="328_4way_193to4way_213_0" departPos="5.10" departSpeed="0.00" departDelay="0.00" arrival="68.00" arrivalLane="560_4way_313to4way_333_0" arrivalPos="85.60" arrivalSpeed="13.82" duration="54.00" routeLength="680.50" waitingTime="0.00" waitingCount="0" stopTime="0.00" timeLoss="4.57" rerouteNo="0" devices="tripinfo_126" vType="DEFAULT_VEHTYPE" speedFactor="1.01" vaporized=""/>
    <tripinfo id="37" depart="5.00" departLane="27_3way_16to3way_15_0" departPos="5.10" departSpeed="0.00" departDelay="0.89" arrival="70.00" arrivalLane="183_4way_93to4way_113_0" arrivalPos="85.60" arrivalSpeed="13.48" duration="65.00" routeLength="775.13" waitingTime="0.00" waitingCount="0" stopTime="0.00" timeLoss="7.20" rerouteNo="0" devices="tripinfo_37" vType="DEFAULT_VEHTYPE" speedFactor="0.99" vaporized=""/>
    <tripinfo id="210" depart="24.00" departLane="530_4way_318to4way_298_0" departPos="5.10" departSpeed="0.00" departDelay="0.67" arrival="71.00" arrivalLane="302_4way_198to4way_178_0" arrivalPos="85.60" arrivalSpeed="15.51" duration="47.00" routeLength="680.50" waitingTime="0.00" waitingCount="0" stopTime="0.00" timeLoss="5.38" rerouteNo="0" devices="tripinfo_210" vType="DEFAULT_VEHTYPE" speedFactor="1.20" vaporized=""/>
    <tripinfo id="531" depart="59.00" departLane="124_3way_5to3way_4_0" departPos="5.10" departSpeed="0.00" departDelay="0.01" arrival="74.00" arrivalLane="69_3way_4to3way_3_0" arrivalPos="85.60" arrivalSpeed="15.25" duration="15.00" routeLength="180.50" waitingTime="0.00" waitingCount="0" stopTime="0.00" timeLoss="3.25" rerouteNo="0" devices="tripinfo_531" vType="DEFAULT_VEHTYPE" speedFactor="1.11" vaporized=""/>
    <tripinfo id="68" depart="8.00" departLane="254_4way_151to4way_171_0" departPos="5.10" departSpeed="0.00" departDelay="0.44" arrival="76.00" arrivalLane="432_4way_250to4way_249_0" arrivalPos="85.60" arrivalSpeed="14.15" duration="68.00" routeLength="680.30" waitingTime="10.00" waitingCount="1" stopTime="0.00" timeLoss="22.10" rerouteNo="0" devices="tripinfo_68" vType="DEFAULT_VEHTYPE" speedFactor="1.09" vaporized=""/>
    <tripinfo id="148" depart="17.00" departLane="118_4way_375to3way_395_0" departPos="5.10" departSpeed="0.00" departDelay="0.56" arrival="76.00" arrivalLane="117_3way_395to3way_396_0" arrivalPos="85.60" arrivalSpeed="13.68" duration="59.00" routeLength="175.13" waitingTime="36.00" waitingCount="1" stopTime="0.00" timeLoss="46.18" rerouteNo="0" devices="tripinfo_148" vType="DEFAULT_VEHTYPE" speedFactor="1.07" vaporized=""/>
    <tripinfo id="397" depart="45.00" departLane="372_4way_217to4way_218_0" departPos="5.10" departSpeed="0.00" departDelay="0.89" arrival="76.00" arrivalLane="337_4way_218to4way_198_0" arrivalPos="85.60" arrivalSpeed="13.45" duration="31.00" routeLength="175.13" waitingTime="8.00" waitingCount="1" stopTime="0.00" timeLoss="18.24" rerouteNo="0" devices="tripinfo_397" vType="DEFAULT_VEHTYPE" speedFactor="1.05" vaporized=""/>
    <tripinfo id="9" depart="1.00" departLane="733_4way_76to4way_75_0" departPos="5.10" departSpeed="0.00" departDelay="0.00" arrival="77.00" arrivalLane="731_4way_75to4way_74_0" arrivalPos="85.60" arrivalSpeed="11.58" duration="76.00" routeLength="180.50" waitingTime="53.00" waitingCount="1" stopTime="0.00" timeLoss="61.53" rerouteNo="0" devices="tripinfo_9" vType="DEFAULT_VEHTYPE" speedFactor="0.91" vaporized=""/>
    <tripinfo id="203" depart="23.00" departLane="708_4way_62to4way_82_0" departPos="5.10" departSpeed="0.00" departDelay="0.45" arrival="77.00" arrivalLane="742_4way_83to4way_84_0" arrivalPos="85.60" arrivalSpeed="12.44" duration="54.00" routeLength="275.13" waitingTime="22.00" waitingCount="1" stopTime="0.00" timeLoss="32.43" rerouteNo="0" devices="tripinfo_203" vType="DEFAULT_VEHTYPE" speedFactor="0.95" vaporized=""/>
    <tripinfo id="326" depart="37.00" departLane="18_3way_120to4way_121_0" departPos="5.10" departSpeed="0.00" departDelay="0.78" arrival="77.00" arrivalLane="198_4way_121to4way_122_0" arrivalPos="85.60" arrivalSpeed="13.40" duration="40.00" routeLength="180.50" waitingTime="18.00" waitingCount="1" stopTime="0.00" timeLoss="26.82" rerouteNo="0" devices="tripinfo_326" vType="DEFAULT_VEHTYPE" speedFactor="1.00" vaporized=""/>
    <tripinfo id="371" depart="42.00" departLane="47_3way_40to3way_20_0" departPos="5.10" departSpeed="0.00" departDelay="0.78" arrival="77.00" arrivalLane="1_3way_1to3way_2_0" arrivalPos="85.60" arrivalSpeed="12.54" duration="35.00" routeLength="383.70" waitingTime="0.00" waitingCount="0" stopTime="0.00" timeLoss="4.27" rerouteNo="0" devices="tripinfo_371" vType="DEFAULT_VEHTYPE" speedFactor="0.92" vaporized=""/>
    <tripinfo id="610" depart="68.00" departLane="413_4way_238to4way_258_0" departPos="5.10" departSpeed="0.00" departDelay="0.23" arrival="78.00" arrivalLane="413_4way_238to4way_258_0" arrivalPos="85.60" arrivalSpeed="12.31" duration="10.00" routeLength="80.50" waitingTime="0.00" waitingCount="0" stopTime="0.00" timeLoss="2.97" rerouteNo="0" devices="tripinfo_610" vType="DEFAULT_VEHTYPE" speedFactor="0.93" vaporized=""/>
    <tripinfo id="187" depart="21.00" departLane="33_3way_180to3way_160_0" departPos="5.10" departSpeed="0.00" departDelay="0.22" arrival="79.00" arrivalLane="198_4way_121to4way_122_0" arrivalPos="85.60" arrivalSpeed="14.03" duration="58.00" routeLength="480.30" waitingTime="11.00" waitingCount="1" stopTime="0.00" timeLoss="23.20" rerouteNo="0" devices="tripinfo_187" vType="DEFAULT_VEHTYPE" speedFactor="1.03" vaporized=""/>
    <tripinfo id="416" depart="47.00" departLane="551_4way_31to4way_32_0" departPos="5.10" departSpeed="0.00" departDelay="0.78" arrival="79.00" arrivalLane="570_4way_32to4way_33_0" arrivalPos="85.60" arrivalSpeed="13.78" duration="32.00" routeLength="180.50" waitingTime="9.00" waitingCount="1" stopTime="0.00" timeLoss="18.53" rerouteNo="0" devices="tripinfo_416" vType="DEFAULT_VEHTYPE" speedFactor="1.04" vaporized=""/>
    <tripinfo id="14" depart="2.00" departLane="716_4way_66to4way_86_0" departPos="5.10" departSpeed="0.00" departDelay="0.44" arrival="80.00" arrivalLane="315_4way_187to4way_188_0" arrivalPos="85.60" arrivalSpeed="12.23" duration="78.00" routeLength="775.13" waitingTime="1.00" waitingCount="1" stopTime="0.00" timeLoss="18.47" rerouteNo="0" devices="tripinfo_14" vType="DEFAULT_VEHTYPE" speedFactor="0.95" vaporized=""/>
    <tripinfo id="47" depart="6.00" departLane="357_4way_21to4way_41_0" departPos="5.10" departSpeed="0.00" departDelay="0.78" arrival="82.00" arrivalLane="235_4way_142to4way_143_0" arrivalPos="85.60" arrivalSpeed="12.07" duration="76.00" routeLength="775.13" waitingTime="0.00" waitingCount="0" stopTime="0.00" timeLoss="12.55" rerouteNo="0" devices="tripinfo_47" vType="DEFAULT_VEHTYPE" speedFactor="0.90" vaporized=""/>
    <tripinfo id="284" depart="32.00" departLane="196_4way_138to4way_118_0" departPos="5.10" departSpeed="0.00" departDelay="0.45" arrival="83.00" arrivalLane="187_4way_116to4way_115_0" arrivalPos="85.60" arrivalSpeed="14.71" duration="51.00" routeLength="375.13" waitingTime="13.00" waitingCount="1" stopTime="0.00" timeLoss="25.74" rerouteNo="0" devices="tripinfo_284" vType="DEFAULT_VEHTYPE" speedFactor="1.12" vaporized=""/>
    <tripinfo id="177" depart="20.00" departLane="634_4way_371to4way_351_0" departPos="5.10" departSpeed="0.00" departDelay="0.33" arrival="84.00" arrivalLane="547_4way_309to4way_308_0" arrivalPos="85.60" arrivalSpeed="12.98" duration="64.00" routeLength="575.13" waitingTime="11.00" waitingCount="1" stopTime="0.00" timeLoss="23.11" rerouteNo="0" devices="tripinfo_177" vType="DEFAULT_VEHTYPE" speedFactor="1.03" vaporized=""/>
    <tripinfo id="115" depart="13.00" departLane="455_4way_261to4way_262_0" departPos="5.10" departSpeed="0.00" departDelay="0.22" arrival="85.00" arrivalLane="380_4way_242to4way_222_0" arrivalPos="85.60" arrivalSpeed="11.58" duration="72.00" routeLength="275.13" waitingTime="42.00" waitingCount="1" stopTime="0.00" timeLoss="50.01" rerouteNo="0" devices="tripinfo_115" vType="DEFAULT_VEHTYPE" speedFactor="0.92" vaporized=""/>
    <tripinfo id="138" depart="16.00" departLane="406_4way_234to4way_254_0" departPos="5.10" departSpeed="0.00" departDelay="0.67" arrival="85.00" arrivalLane="487_4way_276to4way_277_0" arrivalPos="85.60" arrivalSpeed="13.32" duration="69.00" routeLength="475.13" waitingTime="21.00" waitingCount="1" stopTime="0.00" timeLoss="33.72" rerouteNo="0" devices="tripinfo_138" vType="DEFAULT_VEHTYPE" speedFactor="1.00" vaporized=""/>
    <tripinfo id="533" depart="60.00" departLane="14_4way_118to3way_119_0" departPos="5.10" departSpeed="0.00" departDelay="0.78" arrival="85.00" arrivalLane="138_3way_99to3way_79_0" arrivalPos="85.60" arrivalSpeed="14.71" duration="25.00" routeLength="275.13" waitingTime="0.00" waitingCount="0" stopTime="0.00" timeLoss="5.87" rerouteNo="0" devices="tripinfo_533" vType="DEFAULT_VEHTYPE" speedFactor="1.09" vaporized=""/>
    <tripinfo id="118" depart="14.00" departLane="745_4way_87to4way_86_0" departPos="5.10" departSpeed="0.00" departDelay="0.89" arrival="86.00" arrivalLane="159_4way_85to4way_105_0" arrivalPos="85.60" arrivalSpeed="14.19" duration="72.00" routeLength="275.13" waitingTime="41.00" waitingCount="1" stopTime="0.00" timeLoss="52.00" rerouteNo="0" devices="tripinfo_118" vType="DEFAULT_VEHTYPE" speedFactor="1.05" vaporized=""/>
    <tripinfo id="421" depart="47.00" departLane="664_4way_374to4way_373_0" departPos="5.10" departSpeed="0.00" departDelay="0.23" arrival="87.00" arrivalLane="112_4way_372to3way_392_0" arrivalPos="85.60" arrivalSpeed="12.71" duration="40.00" routeLength="275.13" waitingTime="8.00" waitingCount="1" stopTime="0.00" timeLoss="18.71" rerouteNo="0" devices="tripinfo_421" vType="DEFAULT_VEHTYPE" speedFactor="0.99" vaporized=""/>
    <tripinfo id="233" depart="26.00" departLane="460_4way_263to4way_283_0" departPos="5.10" departSpeed="0.00" departDelay="0.11" arrival="89.00" arrivalLane="580_4way_325to4way_326_0" arrivalPos="85.60" arrivalSpeed="10.67" duration="63.00" routeLength="575.13" waitingTime="0.00" waitingCount="0" stopTime="0.00" timeLoss="12.77" rerouteNo="0" devices="tripinfo_233" vType="DEFAULT_VEHTYPE" speedFactor="0.83" vaporized=""/>
    <tripinfo id="257" depart="29.00" departLane="438_4way_252to4way_251_0" departPos="5.10" departSpeed="0.00" departDelay="0.45" arrival="89.00" arrivalLane="437_4way_250to4way_270_0" arrivalPos="85.60" arrivalSpeed="11.49" duration="60.00" routeLength="275.13" waitingTime="25.00" waitingCount="1" stopTime="0.00" timeLoss="34.38" rerouteNo="0" devices="tripinfo_257" vType="DEFAULT_VEHTYPE" speedFactor="0.83" vaporized=""/>
    <tripinfo id="478" depart="54.00" departLane="315_4way_188to4way_187_0" departPos="5.10" departSpeed="0.00" departDelay="0.89" arrival="90.00" arrivalLane="351_4way_207to4way_227_0" arrivalPos="85.60" arrivalSpeed="13.28" duration="36.00" routeLength="275.13" waitingTime="3.00" waitingCount="1" stopTime="0.00" timeLoss="14.40" rerouteNo="0" devices="tripinfo_478" vType="DEFAULT_VEHTYPE" speedFactor="0.96" vaporized=""/>
    <tripinfo id="237" depart="27.00" departLane="365_4way_213to4way_233_0" departPos="5.10" departSpeed="0.00" departDelay="0.67" arrival="92.00" arrivalLane="487_4way_276to4way_277_0" arrivalPos="85.60" arrivalSpeed="12.51" duration="65.00" routeLength="675.13" waitingTime="2.00" waitingCount="1" stopTime="0.00" timeLoss="14.55" rerouteNo="0" devices="tripinfo_237" vType="DEFAULT_VEHTYPE" speedFactor="0.97" vaporized=""/>
    <tripinfo id="189" depart="21.00" departLane="512_4way_30to4way_29_0" departPos="5.10" departSpeed="0.00" departDelay="0.00" arrival="96.00" arrivalLane="474_4way_27to4way_47_0" arrivalPos="85.60" arrivalSpeed="11.88" duration="75.00" routeLength="375.13" waitingTime="32.00" waitingCount="1" stopTime="0.00" timeLoss="44.77" rerouteNo="0" devices="tripinfo_189" vType="DEFAULT_VEHTYPE" speedFactor="0.92" vaporized=""/>
    <tripinfo id="357" depart="40.00" departLane="34_4way_161to3way_160_0" departPos="5.10" departSpeed="0.00" departDelay="0.34" arrival="98.00" arrivalLane="53_3way_220to3way_240_0" arrivalPos="85.60" arrivalSpeed="13.91" duration="58.00" routeLength="475.13" waitingTime="15.00" waitingCount="1" stopTime="0.00" timeLoss="24.23" rerouteNo="0" devices="tripinfo_357" vType="DEFAULT_VEHTYPE" speedFactor="1.04" vaporized=""/>
    <tripinfo id="712" depart="80.00" departLane="418_4way_242to4way_243_0" departPos="5.10" departSpeed="0.00" departDelay="0.90" arrival="98.00" arrivalLane="382_4way_243to4way_223_0" arrivalPos="85.60" arrivalSpeed="13.98" duration="18.00" routeLength="175.13" waitingTime="0.00" waitingCount="0" stopTime="0.00" timeLoss="5.02" rerouteNo="0" devices="tripinfo_712" vType="DEFAULT_VEHTYPE" speedFactor="1.03" vaporized=""/>
    <tripinfo id="197" depart="22.00" departLane="669_4way_58to4way_38_0" departPos="5.10" departSpeed="0.00" departDelay="0.11" arrival="99.00" arrivalLane="23_3way_15to3way_14_0" arrivalPos="85.60" arrivalSpeed="13.55" duration="77.00" routeLength="575.13" waitingTime="25.00" waitingCount="1" stopTime="0.00" timeLoss="34.94" rerouteNo="0" devices="tripinfo_197" vType="DEFAULT_VEHTYPE" speedFactor="1.01" vaporized=""/>
    <tripinfo id="507" depart="57.00" departLane="453_4way_26to4way_27_0" departPos="5.10" departSpeed="0.00" departDelay="0.67" arrival="99.00" arrivalLane="143_4way_29to3way_9_0" arrivalPos="85.60" arrivalSpeed="13.30" duration="42.00" routeLength="375.13" waitingTime="0.00" waitingCount="0" stopTime="0.00" timeLoss="13.19" rerouteNo="0" devices="tripinfo_507" vType="DEFAULT_VEHTYPE" speedFactor="0.97" vaporized=""/>
    <tripinfo id="116" depart="13.00" departLane="4_3way_11to3way_10_0" departPos="5.10" departSpeed="0.00" departDelay="0.11" arrival="101.00" arrivalLane="248_4way_148to4way_168_0" arrivalPos="85.60" arrivalSpeed="12.87" duration="88.00" routeLength="1075.13" waitingTime="0.00" waitingCount="0" stopTime="0.00" timeLoss="8.71" rerouteNo="0" devices="tripinfo_116" vType="DEFAULT_VEHTYPE" speedFactor="0.99" vaporized=""/>
    <tripinfo id="472" depart="58.00" departLane="576_4way_323to4way_324_0" departPos="5.10" departSpeed="0.00" departDelay="5.56" arrival="105.00" arrivalLane="464_4way_285to4way_265_0" arrivalPos="85.60" arrivalSpeed="14.53" duration="47.00" routeLength="475.13" waitingTime="0.00" waitingCount="0" stopTime="0.00" timeLoss="13.97" rerouteNo="0" devices="tripinfo_472" vType="DEFAULT_VEHTYPE" speedFactor="1.07" vaporized=""/>
    <tripinfo id="384" depart="44.00" departLane="260_4way_174to4way_154_0" departPos="5.10" departSpeed="0.00" departDelay="1.34" arrival="107.00" arrivalLane="193_4way_117to4way_118_0" arrivalPos="85.60" arrivalSpeed="12.15" duration="63.00" routeLength="680.30" waitingTime="0.00" waitingCount="0" stopTime="0.00" timeLoss="7.04" rerouteNo="0" devices="tripinfo_384" vType="DEFAULT_VEHTYPE" speedFactor="0.90" vaporized=""/>
    <tripinfo id="637" depart="71.00" departLane="327_4way_193to4way_194_0" departPos="5.10" departSpeed="0.00" departDelay="0.23" arrival="107.00" arrivalLane="225_4way_154to4way_134_0" arrivalPos="85.60" arrivalSpeed="12.50" duration="36.00" routeLength="375.13" waitingTime="0.00" waitingCount="0" stopTime="0.00" timeLoss="5.94" rerouteNo="0" devices="tripinfo_637" vType="DEFAULT_VEHTYPE" speedFactor="0.94" vaporized=""/>
    <tripinfo id="420" depart="47.00" departLane="142_3way_80to4way_81_0" departPos="5.10" departSpeed="0.00" departDelay="0.34" arrival="108.00" arrivalLane="744_4way_85to4way_86_0" arrivalPos="85.60" arrivalSpeed="13.09" duration="61.00" routeLength="580.50" waitingTime="8.00" waitingCount="1" stopTime="0.00" timeLoss="18.35" rerouteNo="0" devices="tripinfo_420" vType="DEFAULT_VEHTYPE" speedFactor="0.98" vaporized=""/>
    <tripinfo id="741" depart="83.00" departLane="40_4way_38to3way_18_0" departPos="5.10" departSpeed="0.00" departDelay="0.67" arrival="108.00" arrivalLane="31_3way_17to3way_16_0" arrivalPos="85.60" arrivalSpeed="14.28" duration="25.00" routeLength="275.13" waitingTime="0.00" waitingCount="0" stopTime="0.00" timeLoss="6.25" rerouteNo="0" devices="tripinfo_741" vType="DEFAULT_VEHTYPE" speedFactor="1.12" vaporized=""/>
    <tripinfo id="201" depart="25.00" departLane="565_4way_317to4way_316_0" departPos="5.10" departSpeed="0.00" departDelay="2.67" arrival="113.00" arrivalLane="118_4way_375to3way_395_0" arrivalPos="85.60" arrivalSpeed="11.86" duration="88.00" routeLength="575.13" waitingTime="31.00" waitingCount="1" stopTime="0.00" timeLoss="43.21" rerouteNo="0" devices="tripinfo_201" vType="DEFAULT_VEHTYPE" speedFactor="0.93" vaporized=""/>
    <tripinfo id="649" depart="73.00" departLane="117_3way_395to3way_396_0" departPos="5.10" departSpeed="0.00" departDelay="0.90" arrival="117.00" arrivalLane="647_4way_378to4way_358_0" arrivalPos="85.60" arrivalSpeed="11.80" duration="44.00" routeLength="475.13" waitingTime="0.00" waitingCount="0" stopTime="0.00" timeLoss="6.32" rerouteNo="0" devices="tripinfo_649" vType="DEFAULT_VEHTYPE" speedFactor="0.92" vaporized=""/>
    <tripinfo id="884" depart="99.00" departLane="315_4way_187to4way_188_0" departPos="5.10" departSpeed="0.00" departDelay="0.79" arrival="117.00" arrivalLane="317_4way_188to4way_189_0" arrivalPos="85.60" arrivalSpeed="11.92" duration="18.00" routeLength="180.50" waitingTime="0.00" waitingCount="0" stopTime="0.00" timeLoss="3.02" rerouteNo="0" devices="tripinfo_884" vType="DEFAULT_VEHTYPE" speedFactor="0.87" vaporized=""/>
    <tripinfo id="956" depart="107.00" departLane="152_4way_103to4way_123_0" departPos="5.10" departSpeed="0.00" departDelay="0.79" arrival="117.00" arrivalLane="152_4way_103to4way_123_0" arrivalPos="85.60" arrivalSpeed="12.14" duration="10.00" routeLength="80.50" waitingTime="0.00" waitingCount="0" stopTime="0.00" timeLoss="3.21" rerouteNo="0" devices="tripinfo_956" vType="DEFAULT_VEHTYPE" speedFactor="0.94" vaporized=""/>
    <tripinfo id="331" depart="37.00" departLane="90_4way_362to3way_382_0" departPos="5.10" departSpeed="0.00" departDelay="0.23" arrival="118.00" arrivalLane="99_3way_387to3way_388_0" arrivalPos="85.60" arrivalSpeed="12.59" duration="81.00" routeLength="675.13" waitingTime="17.00" waitingCount="1" stopTime="0.00" timeLoss="28.25" rerouteNo="0" devices="tripinfo_331" vType="DEFAULT_VEHTYPE" speedFactor="0.94" vaporized=""/>
    <tripinfo id="891" depart="99.00" departLane="51_3way_239to3way_219_0" departPos="5.10" departSpeed="0.00" departDelay="0.01" arrival="120.00" arrivalLane="52_3way_219to4way_218_0" arrivalPos="85.60" arrivalSpeed="11.67" duration="21.00" routeLength="175.13" waitingTime="0.00" waitingCount="0" stopTime="0.00" timeLoss="5.76" rerouteNo="0" devices="tripinfo_891" vType="DEFAULT_VEHTYPE" speedFactor="0.90" vaporized=""/>
    <tripinfo id="973" depart="110.00" departLane="69_3way_4to3way_3_0" departPos="5.10" departSpeed="0.00" departDelay="1.90" arrival="120.00" arrivalLane="69_3way_4to3way_3_0" arrivalPos="85.60" arrivalSpeed="11.86" duration="10.00" routeLength="80.50" waitingTime="0.00" waitingCount="0" stopTime="0.00" timeLoss="2.93" rerouteNo="0" devices="tripinfo_973" vType="DEFAULT_VEHTYPE" speedFactor="0.93" vaporized=""/>
    <tripinfo id="386" depart="43.00" departLane="25_3way_140to3way_160_0" departPos="5.10" departSpeed="0.00" departDelay="0.11" arrival="123.00" arrivalLane="66_3way_280to4way_281_0" arrivalPos="85.60" arrivalSpeed="10.91" duration="80.00" routeLength="775.13" waitingTime="1.00" waitingCount="1" stopTime="0.00" timeLoss="10.28" rerouteNo="0" devices="tripinfo_386" vType="DEFAULT_VEHTYPE" speedFactor="0.82" vaporized=""/>
    <tripinfo id="887" depart="99.00" departLane="8_3way_100to3way_80_0" departPos="5.10" departSpeed="0.00" departDelay="0.45" arrival="125.00" arrivalLane="126_3way_60to3way_40_0" arrivalPos="85.60" arrivalSpeed="12.34" duration="26.00" routeLength="280.50" waitingTime="0.00" waitingCount="0" stopTime="0.00" timeLoss="4.02" rerouteNo="0" devices="tripinfo_887" vType="DEFAULT_VEHTYPE" speedFactor="0.96" vaporized=""/>
    <tripinfo id="164" depart="19.00" departLane="207_4way_145to4way_125_0" departPos="5.10" departSpeed="0.00" departDelay="0.78" arrival="130.00" arrivalLane="151_4way_104to4way_103_0" arrivalPos="85.60" arrivalSpeed="6.01" duration="111.00" routeLength="375.13" waitingTime="69.00" waitingCount="2" stopTime="0.00" timeLoss="85.99" rerouteNo="0" devices="tripinfo_164" vType="DEFAULT_VEHTYPE" speedFactor="1.11" vaporized=""/>
    <tripinfo id="232" depart="26.00" departLane="8_3way_80to3way_100_0" departPos="5.10" departSpeed="0.00" departDelay="0.22" arrival="130.00" arrivalLane="145_4way_101to4way_102_0" arrivalPos="85.60" arrivalSpeed="5.60" duration="104.00" routeLength="275.13" waitingTime="66.00" waitingCount="2" stopTime="0.00" timeLoss="84.14" rerouteNo="0" devices="tripinfo_232" vType="DEFAULT_VEHTYPE" speedFactor="1.06" vaporized=""/>
    <tripinfo id="308" depart="35.00" departLane="324_4way_211to4way_191_0" departPos="5.10" departSpeed="0.00" departDelay="0.78" arrival="130.00" arrivalLane="531_4way_31to4way_30_0" arrivalPos="85.60" arrivalSpeed="6.51" duration="95.00" routeLength="975.13" waitingTime="14.00" waitingCount="1" stopTime="0.00" timeLoss="32.64" rerouteNo="0" devices="tripinfo_308" vType="DEFAULT_VEHTYPE" speedFactor="1.14" vaporized=""/>