<?xml version="1.0" encoding="UTF-8"?>

<!-- generated on 2023-07-27 01:39:41 by Eclipse SUMO sumo Version 1.12.0
<configuration xmlns:xsi="http://www.w3.org/2001/XMLSchema-instance" xsi:noNamespaceSchemaLocation="http://sumo.dlr.de/xsd/sumoConfiguration.xsd">

    <input>
        <net-file value="../../data_generation/sq.net.xml"/>
        <route-files value="../../data_generation/sq.rou.xml"/>
    </input>

    <output>
        <tripinfo-output value="tripinfo.xml"/>
        <statistic-output value="statistic.xml"/>
    </output>

    <time>
        <begin value="0"/>
        <end value="3600"/>
    </time>

    <processing>
        <time-to-teleport value="-1"/>
    </processing>

    <traci_server>
        <remote-port value="49279"/>
    </traci_server>

    <random_number>
        <seed value="1395"/>
    </random_number>

    <gui_only>
        <gui-settings-file value="../../data_generation/view_HY_0402.xml"/>
    </gui_only>

</configuration>
-->

<tripinfos xmlns:xsi="http://www.w3.org/2001/XMLSchema-instance" xsi:noNamespaceSchemaLocation="http://sumo.dlr.de/xsd/tripinfo_file.xsd">
    <tripinfo id="1" depart="2.00" departLane="373_4way_66to4way_67_0" departPos="5.10" departSpeed="0.00" departDelay="0.67" arrival="11.00" arrivalLane="373_4way_66to4way_67_0" arrivalPos="85.60" arrivalSpeed="13.32" duration="9.00" routeLength="80.50" waitingTime="0.00" waitingCount="0" stopTime="0.00" timeLoss="3.36" rerouteNo="0" devices="tripinfo_1" vType="DEFAULT_VEHTYPE" speedFactor="1.04" vaporized=""/>
    <tripinfo id="18" depart="26.00" departLane="137_4way_112to4way_97_0" departPos="5.10" departSpeed="0.00" departDelay="2.00" arrival="36.00" arrivalLane="137_4way_112to4way_97_0" arrivalPos="85.60" arrivalSpeed="12.37" duration="10.00" routeLength="80.50" waitingTime="0.00" waitingCount="0" stopTime="0.00" timeLoss="3.10" rerouteNo="0" devices="tripinfo_18" vType="DEFAULT_VEHTYPE" speedFactor="0.96" vaporized=""/>
    <tripinfo id="22" depart="30.00" departLane="403_4way_98to4way_83_0" departPos="5.10" departSpeed="0.00" departDelay="0.67" arrival="39.00" arrivalLane="403_4way_98to4way_83_0" arrivalPos="85.60" arrivalSpeed="13.26" duration="9.00" routeLength="80.50" waitingTime="0.00" waitingCount="0" stopTime="0.00" timeLoss="2.91" rerouteNo="0" devices="tripinfo_22" vType="DEFAULT_VEHTYPE" speedFactor="1.00" vaporized=""/>
    <tripinfo id="7" depart="10.00" departLane="7_3way_119to3way_104_0" departPos="5.10" departSpeed="0.00" departDelay="0.67" arrival="44.00" arrivalLane="88_3way_74to3way_59_0" arrivalPos="85.60" arrivalSpeed="13.08" duration="34.00" routeLength="380.50" waitingTime="0.00" waitingCount="0" stopTime="0.00" timeLoss="4.46" rerouteNo="0" devices="tripinfo_7" vType="DEFAULT_VEHTYPE" speedFactor="0.95" vaporized=""/>
    <tripinfo id="20" depart="27.00" departLane="395_4way_94to4way_79_0" departPos="5.10" departSpeed="0.00" departDelay="0.33" arrival="72.00" arrivalLane="317_4way_34to4way_33_0" arrivalPos="85.60" arrivalSpeed="12.08" duration="45.00" routeLength="475.13" waitingTime="0.00" waitingCount="0" stopTime="0.00" timeLoss="6.06" rerouteNo="0" devices="tripinfo_20" vType="DEFAULT_VEHTYPE" speedFactor="0.89" vaporized=""/>
    <tripinfo id="47" depart="63.00" departLane="40_3way_180to4way_181_0" departPos="5.10" departSpeed="0.00" departDelay="0.33" arrival="73.00" arrivalLane="40_3way_180to4way_181_0" arrivalPos="85.60" arrivalSpeed="11.24" duration="10.00" routeLength="80.50" waitingTime="0.00" waitingCount="0" stopTime="0.00" timeLoss="3.18" rerouteNo="0" devices="tripinfo_47" vType="DEFAULT_VEHTYPE" speedFactor="0.90" vaporized=""/>
    <tripinfo id="26" depart="35.00" departLane="34_3way_164to4way_163_0" departPos="5.10" departSpeed="0.00" departDelay="0.33" arrival="77.00" arrivalLane="227_4way_163to4way_178_0" arrivalPos="85.60" arrivalSpeed="14.28" duration="42.00" routeLength="175.13" waitingTime="18.00" waitingCount="1" stopTime="0.00" timeLoss="28.37" rerouteNo="0" devices="tripinfo_26" vType="DEFAULT_VEHTYPE" speedFactor="1.03" vaporized=""/>
    <tripinfo id="12" depart="16.00" departLane="270_4way_187to4way_202_0" departPos="5.10" departSpeed="0.00" departDelay="0.00" arrival="109.00" arrivalLane="71_3way_222to3way_223_0" arrivalPos="85.60" arrivalSpeed="15.03" duration="93.00" routeLength="775.13" waitingTime="33.00" waitingCount="1" stopTime="0.00" timeLoss="43.36" rerouteNo="0" devices="tripinfo_12" vType="DEFAULT_VEHTYPE" speedFactor="1.16" vaporized=""/>
    <tripinfo id="8" depart="11.00" departLane="334_4way_56to4way_41_0" departPos="5.10" departSpeed="0.00" departDelay="0.33" arrival="116.00" arrivalLane="86_3way_6to3way_5_0" arrivalPos="85.60" arrivalSpeed="13.23" duration="105.00" routeLength="875.13" waitingTime="27.00" waitingCount="1" stopTime="0.00" timeLoss="38.95" rerouteNo="0" devices="tripinfo_8" vType="DEFAULT_VEHTYPE" speedFactor="0.98" vaporized=""/>
    <tripinfo id="14" depart="19.00" departLane="276_4way_19to4way_34_0" departPos="5.10" departSpeed="0.00" departDelay="0.33" arrival="118.00" arrivalLane="263_4way_184to4way_185_0" arrivalPos="85.60" arrivalSpeed="12.43" duration="99.00" routeLength="1175.13" waitingTime="0.00" waitingCount="0" stopTime="0.00" timeLoss="9.01" rerouteNo="0" devices="tripinfo_14" vType="DEFAULT_VEHTYPE" speedFactor="0.95" vaporized=""/>
    <tripinfo id="9" depart="12.00" departLane="224_4way_176to4way_161_0" departPos="5.10" departSpeed="0.00" departDelay="0.00" arrival="137.00" arrivalLane="356_4way_56to4way_55_0" arrivalPos="85.60" arrivalSpeed="12.11" duration="125.00" routeLength="875.13" waitingTime="45.00" waitingCount="1" stopTime="0.00" timeLoss="54.69" rerouteNo="0" devices="tripinfo_9" vType="DEFAULT_VEHTYPE" speedFactor="0.91" vaporized=""/>
    <tripinfo id="10" depart="14.00" departLane="170_4way_130to4way_145_0" departPos="5.10" departSpeed="0.00" departDelay="0.67" arrival="137.00" arrivalLane="198_4way_147to4way_148_0" arrivalPos="85.60" arrivalSpeed="13.48" duration="123.00" routeLength="375.13" waitingTime="79.00" waitingCount="2" stopTime="0.00" timeLoss="95.33" rerouteNo="0" devices="tripinfo_10" vType="DEFAULT_VEHTYPE" speedFactor="1.04" vaporized=""/>
    <tripinfo id="16" depart="22.00" departLane="184_4way_141to4way_140_0" departPos="5.10" departSpeed="0.00" departDelay="0.67" arrival="137.00" arrivalLane="183_4way_139to4way_154_0" arrivalPos="85.60" arrivalSpeed="11.30" duration="115.00" routeLength="275.13" waitingTime="78.00" waitingCount="2" stopTime="0.00" timeLoss="91.94" rerouteNo="0" devices="tripinfo_16" vType="DEFAULT_VEHTYPE" speedFactor="0.90" vaporized=""/>
    <tripinfo id="25" depart="34.00" departLane="128_4way_94to4way_109_0" departPos="5.10" departSpeed="0.00" departDelay="0.67" arrival="137.00" arrivalLane="209_4way_155to4way_156_0" arrivalPos="85.60" arrivalSpeed="12.15" duration="103.00" routeLength="575.13" waitingTime="46.00" waitingCount="1" stopTime="0.00" timeLoss="58.76" rerouteNo="0" devices="tripinfo_25" vType="DEFAULT_VEHTYPE" speedFactor="0.95" vaporized=""/>
    <tripinfo id="73" depart="98.00" departLane="198_4way_147to4way_148_0" departPos="5.10" departSpeed="0.00" departDelay="0.67" arrival="137.00" arrivalLane="27_3way_149to3way_164_0" arrivalPos="85.60" arrivalSpeed="12.82" duration="39.00" routeLength="280.29" waitingTime="8.00" waitingCount="1" stopTime="0.00" timeLoss="17.76" rerouteNo="0" devices="tripinfo_73" vType="DEFAULT_VEHTYPE" speedFactor="0.98" vaporized=""/>
    <tripinfo id="82" depart="110.00" departLane="171_4way_131to4way_132_0" departPos="5.10" departSpeed="0.00" departDelay="0.67" arrival="137.00" arrivalLane="173_4way_132to4way_133_0" arrivalPos="85.60" arrivalSpeed="12.51" duration="27.00" routeLength="180.50" waitingTime="4.00" waitingCount="1" stopTime="0.00" timeLoss="13.50" rerouteNo="0" devices="tripinfo_82" vType="DEFAULT_VEHTYPE" speedFactor="0.99" vaporized=""/>
    <tripinfo id="24" depart="32.00" departLane="340_4way_48to4way_47_0" departPos="5.10" departSpeed="0.00" departDelay="0.00" arrival="138.00" arrivalLane="366_4way_62to4way_77_0" arrivalPos="85.60" arrivalSpeed="12.30" duration="106.00" routeLength="275.13" waitingTime="73.00" waitingCount="2" stopTime="0.00" timeLoss="85.00" rerouteNo="0" devices="tripinfo_24" vType="DEFAULT_VEHTYPE" speedFactor="0.97" vaporized=""/>
    <tripinfo id="83" depart="111.00" departLane="256_4way_33to4way_18_0" departPos="5.10" departSpeed="0.00" departDelay="0.34" arrival="138.00" arrivalLane="77_4way_18to3way_3_0" arrivalPos="85.60" arrivalSpeed="12.64" duration="27.00" routeLength="180.50" waitingTime="3.00" waitingCount="1" stopTime="0.00" timeLoss="12.07" rerouteNo="0" devices="tripinfo_83" vType="DEFAULT_VEHTYPE" speedFactor="0.93" vaporized=""/>
    <tripinfo id="0" depart="0.00" departLane="352_4way_54to4way_53_0" departPos="5.10" departSpeed="0.00" departDelay="0.00" arrival="144.00" arrivalLane="374_4way_66to4way_81_0" arrivalPos="85.60" arrivalSpeed="13.91" duration="144.00" routeLength="475.13" waitingTime="94.00" waitingCount="2" stopTime="0.00" timeLoss="108.72" rerouteNo="0" devices="tripinfo_0" vType="DEFAULT_VEHTYPE" speedFactor="1.00" vaporized=""/>
    <tripinfo id="59" depart="79.00" departLane="245_4way_173to4way_188_0" departPos="5.10" departSpeed="0.00" departDelay="0.33" arrival="144.00" arrivalLane="295_4way_205to4way_206_0" arrivalPos="85.60" arrivalSpeed="13.37" duration="65.00" routeLength="475.13" waitingTime="19.00" waitingCount="1" stopTime="0.00" timeLoss="30.45" rerouteNo="0" devices="tripinfo_59" vType="DEFAULT_VEHTYPE" speedFactor="1.03" vaporized=""/>
    <tripinfo id="30" depart="40.00" departLane="41_3way_194to3way_209_0" departPos="5.10" departSpeed="0.00" departDelay="0.00" arrival="151.00" arrivalLane="55_3way_215to3way_214_0" arrivalPos="85.60" arrivalSpeed="14.33" duration="111.00" routeLength="1183.70" waitingTime="17.00" waitingCount="1" stopTime="0.00" timeLoss="29.15" rerouteNo="0" devices="tripinfo_30" vType="DEFAULT_VEHTYPE" speedFactor="1.05" vaporized=""/>
    <tripinfo id="63" depart="84.00" departLane="237_4way_32to4way_17_0" departPos="5.10" departSpeed="0.00" departDelay="0.00" arrival="153.00" arrivalLane="80_3way_4to3way_5_0" arrivalPos="85.60" arrivalSpeed="12.68" duration="69.00" routeLength="480.29" waitingTime="24.00" waitingCount="1" stopTime="0.00" timeLoss="31.67" rerouteNo="0" devices="tripinfo_63" vType="DEFAULT_VEHTYPE" speedFactor="0.95" vaporized=""/>
    <tripinfo id="108" depart="144.00" departLane="125_4way_108to4way_93_0" departPos="5.10" departSpeed="0.00" departDelay="0.00" arrival="164.00" arrivalLane="410_4way_93to4way_92_0" arrivalPos="85.60" arrivalSpeed="11.51" duration="20.00" routeLength="175.13" waitingTime="0.00" waitingCount="0" stopTime="0.00" timeLoss="5.05" rerouteNo="0" devices="tripinfo_108" vType="DEFAULT_VEHTYPE" speedFactor="0.88" vaporized=""/>
    <tripinfo id="115" depart="154.00" departLane="99_3way_75to4way_76_0" departPos="5.10" departSpeed="0.00" departDelay="0.67" arrival="164.00" arrivalLane="99_3way_75to4way_76_0" arrivalPos="85.60" arrivalSpeed="11.62" duration="10.00" routeLength="80.50" waitingTime="0.00" waitingCount="0" stopTime="0.00" timeLoss="2.88" rerouteNo="0" devices="tripinfo_115" vType="DEFAULT_VEHTYPE" speedFactor="0.92" vaporized=""/>
    <tripinfo id="37" depart="50.00" departLane="103_3way_9to4way_24_0" departPos="5.10" departSpeed="0.00" departDelay="0.67" arrival="167.00" arrivalLane="142_4way_114to4way_129_0" arrivalPos="85.60" arrivalSpeed="13.21" duration="117.00" routeLength="780.50" waitingTime="49.00" waitingCount="1" stopTime="0.00" timeLoss="60.08" rerouteNo="0" devices="tripinfo_37" vType="DEFAULT_VEHTYPE" speedFactor="0.99" vaporized=""/>
    <tripinfo id="31" depart="42.00" departLane="66_3way_219to4way_204_0" departPos="5.10" departSpeed="0.00" departDelay="0.67" arrival="173.00" arrivalLane="352_4way_54to4way_53_0" arrivalPos="85.60" arrivalSpeed="14.34" duration="131.00" routeLength="1175.13" waitingTime="40.00" waitingCount="1" stopTime="0.00" timeLoss="54.03" rerouteNo="0" devices="tripinfo_31" vType="DEFAULT_VEHTYPE" speedFactor="1.11" vaporized=""/>
    <tripinfo id="40" depart="54.00" departLane="255_4way_19to4way_18_0" departPos="5.10" departSpeed="0.00" departDelay="0.67" arrival="195.00" arrivalLane="391_4way_77to4way_92_0" arrivalPos="85.60" arrivalSpeed="6.94" duration="141.00" routeLength="675.13" waitingTime="72.00" waitingCount="2" stopTime="0.00" timeLoss="95.50" rerouteNo="0" devices="tripinfo_40" vType="DEFAULT_VEHTYPE" speedFactor="1.08" vaporized=""/>
    <tripinfo id="72" depart="99.00" departLane="293_4way_203to4way_204_0" departPos="5.10" departSpeed="0.00" departDelay="3.00" arrival="196.00" arrivalLane="222_4way_175to4way_160_0" arrivalPos="85.60" arrivalSpeed="15.36" duration="97.00" routeLength="475.13" waitingTime="47.00" waitingCount="2" stopTime="0.00" timeLoss="66.44" rerouteNo="0" devices="tripinfo_72" vType="DEFAULT_VEHTYPE" speedFactor="1.15" vaporized=""/>
    <tripinfo id="27" depart="36.00" departLane="53_3way_214to3way_213_0" departPos="5.10" departSpeed="0.00" departDelay="0.00" arrival="197.00" arrivalLane="104_4way_91to3way_90_0" arrivalPos="85.60" arrivalSpeed="13.23" duration="161.00" routeLength="1174.93" waitingTime="57.00" waitingCount="2" stopTime="0.00" timeLoss="76.81" rerouteNo="0" devices="tripinfo_27" vType="DEFAULT_VEHTYPE" speedFactor="1.03" vaporized=""/>
    <tripinfo id="34" depart="46.00" departLane="23_3way_149to3way_134_0" departPos="5.10" departSpeed="0.00" departDelay="0.67" arrival="197.00" arrivalLane="383_4way_72to4way_71_0" arrivalPos="85.60" arrivalSpeed="12.65" duration="151.00" routeLength="775.13" waitingTime="75.00" waitingCount="2" stopTime="0.00" timeLoss="92.16" rerouteNo="0" devices="tripinfo_34" vType="DEFAULT_VEHTYPE" speedFactor="0.96" vaporized=""/>
    <tripinfo id="81" depart="108.00" departLane="197_4way_161to4way_146_0" departPos="5.10" departSpeed="0.00" departDelay="0.00" arrival="197.00" arrivalLane="379_4way_70to4way_69_0" arrivalPos="85.60" arrivalSpeed="13.58" duration="89.00" routeLength="775.13" waitingTime="16.00" waitingCount="2" stopTime="0.00" timeLoss="34.81" rerouteNo="0" devices="tripinfo_81" vType="DEFAULT_VEHTYPE" speedFactor="1.05" vaporized=""/>
    <tripinfo id="93" depart="124.00" departLane="298_4way_22to4way_21_0" departPos="5.10" departSpeed="0.00" departDelay="0.00" arrival="197.00" arrivalLane="299_4way_21to4way_36_0" arrivalPos="85.60" arrivalSpeed="13.51" duration="73.00" routeLength="175.13" waitingTime="50.00" waitingCount="1" stopTime="0.00" timeLoss="59.05" rerouteNo="0" devices="tripinfo_93" vType="DEFAULT_VEHTYPE" speedFactor="1.00" vaporized=""/>
    <tripinfo id="65" depart="87.00" departLane="370_4way_64to4way_79_0" departPos="5.10" departSpeed="0.00" departDelay="0.34" arrival="202.00" arrivalLane="132_4way_111to4way_112_0" arrivalPos="85.60" arrivalSpeed="16.01" duration="115.00" routeLength="575.13" waitingTime="61.00" waitingCount="2" stopTime="0.00" timeLoss="79.69" rerouteNo="0" devices="tripinfo_65" vType="DEFAULT_VEHTYPE" speedFactor="1.20" vaporized=""/>
    <tripinfo id="36" depart="48.00" departLane="376_4way_67to4way_82_0" departPos="5.10" departSpeed="0.00" departDelay="0.00" arrival="216.00" arrivalLane="173_4way_132to4way_133_0" arrivalPos="85.60" arrivalSpeed="15.87" duration="168.00" routeLength="975.13" waitingTime="84.00" waitingCount="2" stopTime="0.00" timeLoss="106.43" rerouteNo="0" devices="tripinfo_36" vType="DEFAULT_VEHTYPE" speedFactor="1.16" vaporized=""/>
    <tripinfo id="98" depart="131.00" departLane="364_4way_76to4way_61_0" departPos="5.10" departSpeed="0.00" departDelay="0.34" arrival="217.00" arrivalLane="79_4way_31to3way_30_0" arrivalPos="85.60" arrivalSpeed="11.95" duration="86.00" routeLength="375.13" waitingTime="44.00" waitingCount="1" stopTime="0.00" timeLoss="54.15" rerouteNo="0" devices="tripinfo_98" vType="DEFAULT_VEHTYPE" speedFactor="0.88" vaporized=""/>
    <tripinfo id="149" depart="199.00" departLane="116_4way_88to4way_103_0" departPos="5.10" departSpeed="0.00" departDelay="0.34" arrival="225.00" arrivalLane="150_4way_118to4way_133_0" arrivalPos="85.60" arrivalSpeed="12.73" duration="26.00" routeLength="280.50" waitingTime="0.00" waitingCount="0" stopTime="0.00" timeLoss="4.17" rerouteNo="0" devices="tripinfo_149" vType="DEFAULT_VEHTYPE" speedFactor="0.95" vaporized=""/>
    <tripinfo id="156" depart="208.00" departLane="7_3way_119to3way_104_0" departPos="5.10" departSpeed="0.00" departDelay="0.00" arrival="226.00" arrivalLane="8_3way_104to3way_89_0" arrivalPos="85.60" arrivalSpeed="11.45" duration="18.00" routeLength="180.50" waitingTime="0.00" waitingCount="0" stopTime="0.00" timeLoss="3.37" rerouteNo="0" devices="tripinfo_156" vType="DEFAULT_VEHTYPE" speedFactor="0.91" vaporized=""/>
    <tripinfo id="102" depart="136.00" departLane="74_3way_44to3way_29_0" departPos="5.10" departSpeed="0.00" departDelay="0.00" arrival="227.00" arrivalLane="90_3way_7to3way_6_0" arrivalPos="85.60" arrivalSpeed="14.05" duration="91.00" routeLength="977.30" waitingTime="12.00" waitingCount="1" stopTime="0.00" timeLoss="23.65" rerouteNo="0" devices="tripinfo_102" vType="DEFAULT_VEHTYPE" speedFactor="1.05" vaporized=""/>
    <tripinfo id="32" depart="43.00" departLane="365_4way_63to4way_62_0" departPos="5.10" departSpeed="0.00" departDelay="0.33" arrival="228.00" arrivalLane="19_3way_120to3way_135_0" arrivalPos="85.60" arrivalSpeed="13.30" duration="185.00" routeLength="775.13" waitingTime="105.00" waitingCount="3" stopTime="0.00" timeLoss="127.90" rerouteNo="0" devices="tripinfo_32" vType="DEFAULT_VEHTYPE" speedFactor="1.00" vaporized=""/>
    <tripinfo id="2" depart="3.00" departLane="270_4way_202to4way_187_0" departPos="5.10" departSpeed="0.00" departDelay="0.33" arrival="250.00" arrivalLane="344_4way_50to4way_49_0" arrivalPos="85.60" arrivalSpeed="5.51" duration="247.00" routeLength="1275.13" waitingTime="134.00" waitingCount="3" stopTime="0.00" timeLoss="158.20" rerouteNo="0" devices="tripinfo_2" vType="DEFAULT_VEHTYPE" speedFactor="1.04" vaporized=""/>
    <tripinfo id="5" depart="7.00" departLane="290_4way_200to4way_201_0" departPos="5.10" departSpeed="0.00" departDelay="0.33" arrival="250.00" arrivalLane="106_4way_115to4way_100_0" arrivalPos="85.60" arrivalSpeed="5.08" duration="243.00" routeLength="1169.56" waitingTime="120.00" waitingCount="4" stopTime="0.00" timeLoss="150.93" rerouteNo="0" devices="tripinfo_5" vType="DEFAULT_VEHTYPE" speedFactor="0.94" vaporized=""/>
    <tripinfo id="167" depart="223.00" departLane="357_4way_55to4way_70_0" departPos="5.10" departSpeed="0.00" departDelay="0.34" arrival="250.00" arrivalLane="357_4way_55to4way_70_0" arrivalPos="85.60" arrivalSpeed="4.79" duration="27.00" routeLength="80.50" waitingTime="13.00" waitingCount="1" stopTime="0.00" timeLoss="20.17" rerouteNo="0" devices="tripinfo_167" vType="DEFAULT_VEHTYPE" speedFactor="0.85" vaporized=""/>
    <tripinfo id="29" depart="39.00" departLane="339_4way_46to4way_61_0" departPos="5.10" departSpeed="0.00" departDelay="0.33" arrival="251.00" arrivalLane="286_4way_198to4way_199_0" arrivalPos="85.60" arrivalSpeed="6.49" duration="212.00" routeLength="1275.13" waitingTime="91.00" waitingCount="2" stopTime="0.00" timeLoss="113.91" rerouteNo="0" devices="tripinfo_29" vType="DEFAULT_VEHTYPE" speedFactor="0.95" vaporized=""/>
    <tripinfo id="62" depart="83.00" departLane="376_4way_82to4way_67_0" departPos="5.10" departSpeed="0.00" departDelay="0.33" arrival="253.00" arrivalLane="344_4way_50to4way_49_0" arrivalPos="85.60" arrivalSpeed="8.90" duration="170.00" routeLength="475.13" waitingTime="111.00" waitingCount="3" stopTime="0.00" timeLoss="135.91" rerouteNo="0" devices="tripinfo_62" vType="DEFAULT_VEHTYPE" speedFactor="1.05" vaporized=""/>
    <tripinfo id="148" depart="198.00" departLane="196_4way_146to4way_147_0" departPos="5.10" departSpeed="0.00" departDelay="0.67" arrival="256.00" arrivalLane="28_4way_148to3way_149_0" arrivalPos="85.60" arrivalSpeed="14.48" duration="58.00" routeLength="280.50" waitingTime="29.00" waitingCount="1" stopTime="0.00" timeLoss="38.94" rerouteNo="0" devices="tripinfo_148" vType="DEFAULT_VEHTYPE" speedFactor="1.07" vaporized=""/>
    <tripinfo id="42" depart="56.00" departLane="118_4way_106to4way_121_0" departPos="5.10" departSpeed="0.00" departDelay="0.00" arrival="257.00" arrivalLane="184_4way_140to4way_141_0" arrivalPos="85.60" arrivalSpeed="13.38" duration="201.00" routeLength="675.13" waitingTime="127.00" waitingCount="3" stopTime="0.00" timeLoss="150.44" rerouteNo="0" devices="tripinfo_42" vType="DEFAULT_VEHTYPE" speedFactor="0.99" vaporized=""/>
    <tripinfo id="46" depart="62.00" departLane="355_4way_54to4way_69_0" departPos="5.10" departSpeed="0.00" departDelay="0.67" arrival="257.00" arrivalLane="65_3way_219to3way_220_0" arrivalPos="85.60" arrivalSpeed="13.53" duration="195.00" routeLength="1175.13" waitingTime="95.00" waitingCount="2" stopTime="0.00" timeLoss="112.08" rerouteNo="0" devices="tripinfo_46" vType="DEFAULT_VEHTYPE" speedFactor="1.04" vaporized=""/>
    <tripinfo id="78" depart="104.00" departLane="187_4way_141to4way_156_0" departPos="5.10" departSpeed="0.00" departDelay="0.00" arrival="257.00" arrivalLane="217_4way_159to4way_160_0" arrivalPos="85.60" arrivalSpeed="13.57" duration="153.00" routeLength="475.13" waitingTime="96.00" waitingCount="3" stopTime="0.00" timeLoss="118.36" rerouteNo="0" devices="tripinfo_78" vType="DEFAULT_VEHTYPE" speedFactor="1.03" vaporized=""/>
    <tripinfo id="127" depart="170.00" departLane="8_3way_104to3way_89_0" departPos="5.10" departSpeed="0.00" departDelay="0.67" arrival="257.00" arrivalLane="408_4way_88to4way_87_0" arrivalPos="85.60" arrivalSpeed="12.79" duration="87.00" routeLength="275.13" waitingTime="54.00" waitingCount="1" stopTime="0.00" timeLoss="65.59" rerouteNo="0" devices="tripinfo_127" vType="DEFAULT_VEHTYPE" speedFactor="1.00" vaporized=""/>
    <tripinfo id="163" depart="218.00" departLane="216_4way_173to4way_158_0" departPos="5.10" departSpeed="0.00" departDelay="0.67" arrival="257.00" arrivalLane="191_4way_158to4way_143_0" arrivalPos="85.60" arrivalSpeed="11.83" duration="39.00" routeLength="180.50" waitingTime="16.00" waitingCount="1" stopTime="0.00" timeLoss="24.97" rerouteNo="0" devices="tripinfo_163" vType="DEFAULT_VEHTYPE" speedFactor="0.94" vaporized=""/>
    <tripinfo id="132" depart="176.00" departLane="404_4way_85to4way_84_0" departPos="5.10" departSpeed="0.00" departDelay="0.00" arrival="258.00" arrivalLane="403_4way_83to4way_98_0" arrivalPos="85.60" arrivalSpeed="11.10" duration="82.00" routeLength="275.13" waitingTime="48.00" waitingCount="1" stopTime="0.00" timeLoss="57.67" rerouteNo="0" devices="tripinfo_132" vType="DEFAULT_VEHTYPE" speedFactor="0.86" vaporized=""/>
    <tripinfo id="135" depart="180.00" departLane="279_4way_191to4way_192_0" departPos="5.10" departSpeed="0.00" departDelay="0.00" arrival="270.00" arrivalLane="200_4way_163to4way_148_0" arrivalPos="85.60" arrivalSpeed="14.20" duration="90.00" routeLength="475.13" waitingTime="48.00" waitingCount="1" stopTime="0.00" timeLoss="57.29" rerouteNo="0" devices="tripinfo_135" vType="DEFAULT_VEHTYPE" speedFactor="1.09" vaporized=""/>
    <tripinfo id="33" depart="44.00" departLane="28_3way_149to4way_148_0" departPos="5.10" departSpeed="0.00" departDelay="0.00" arrival="271.00" arrivalLane="278_4way_190to4way_205_0" arrivalPos="85.60" arrivalSpeed="14.11" duration="227.00" routeLength="775.13" waitingTime="141.00" waitingCount="4" stopTime="0.00" timeLoss="173.48" rerouteNo="0" devices="tripinfo_33" vType="DEFAULT_VEHTYPE" speedFactor="1.06" vaporized=""/>
    <tripinfo id="90" depart="120.00" departLane="161_4way_127to4way_126_0" departPos="5.10" departSpeed="0.00" departDelay="0.00" arrival="274.00" arrivalLane="53_3way_214to3way_213_0" arrivalPos="85.60" arrivalSpeed="12.64" duration="154.00" routeLength="974.92" waitingTime="58.00" waitingCount="2" stopTime="0.00" timeLoss="77.86" rerouteNo="0" devices="tripinfo_90" vType="DEFAULT_VEHTYPE" speedFactor="0.95" vaporized=""/>
    <tripinfo id="69" depart="92.00" departLane="370_4way_79to4way_64_0" departPos="5.10" departSpeed="0.00" departDelay="0.00" arrival="276.00" arrivalLane="325_4way_37to4way_38_0" arrivalPos="85.60" arrivalSpeed="10.77" duration="184.00" routeLength="680.30" waitingTime="113.00" waitingCount="1" stopTime="0.00" timeLoss="123.04" rerouteNo="0" devices="tripinfo_69" vType="DEFAULT_VEHTYPE" speedFactor="0.82" vaporized=""/>
    <tripinfo id="186" depart="248.00" departLane="243_4way_172to4way_187_0" departPos="5.10" departSpeed="0.00" departDelay="0.01" arrival="277.00" arrivalLane="271_4way_188to4way_189_0" arrivalPos="85.60" arrivalSpeed="11.05" duration="29.00" routeLength="275.13" waitingTime="0.00" waitingCount="0" stopTime="0.00" timeLoss="5.03" rerouteNo="0" devices="tripinfo_186" vType="DEFAULT_VEHTYPE" speedFactor="0.87" vaporized=""/>
    <tripinfo id="51" depart="68.00" departLane="408_4way_88to4way_87_0" departPos="5.10" departSpeed="0.00" departDelay="0.00" arrival="282.00" arrivalLane="143_4way_99to4way_114_0" arrivalPos="85.60" arrivalSpeed="9.43" duration="214.00" routeLength="575.13" waitingTime="136.00" waitingCount="3" stopTime="0.00" timeLoss="156.93" rerouteNo="0" devices="tripinfo_51" vType="DEFAULT_VEHTYPE" speedFactor="0.74" vaporized=""/>
    <tripinfo id="206" depart="275.00" departLane="93_4way_61to3way_60_0" departPos="5.10" departSpeed="0.00" departDelay="0.34" arrival="285.00" arrivalLane="93_4way_61to3way_60_0" arrivalPos="85.60" arrivalSpeed="11.61" duration="10.00" routeLength="80.50" waitingTime="0.00" waitingCount="0" stopTime="0.00" timeLoss="2.94" rerouteNo="0" devices="tripinfo_206" vType="DEFAULT_VEHTYPE" speedFactor="0.92" vaporized=""/>
    <tripinfo id="86" depart="116.00" departLane="80_3way_5to3way_4_0" departPos="5.10" departSpeed="0.00" departDelay="1.34" arrival="287.00" arrivalLane="10_3way_105to3way_120_0" arrivalPos="85.60" arrivalSpeed="12.29" duration="171.00" routeLength="1277.30" waitingTime="60.00" waitingCount="2" stopTime="0.00" timeLoss="84.29" rerouteNo="0" devices="tripinfo_86" vType="DEFAULT_VEHTYPE" speedFactor="1.06" vaporized=""/>
    <tripinfo id="104" depart="139.00" departLane="361_4way_72to4way_57_0" departPos="5.10" departSpeed="0.00" departDelay="0.34" arrival="289.00" arrivalLane="323_4way_37to4way_36_0" arrivalPos="85.60" arrivalSpeed="12.73" duration="150.00" routeLength="775.13" waitingTime="73.00" waitingCount="2" stopTime="0.00" timeLoss="90.68" rerouteNo="0" devices="tripinfo_104" vType="DEFAULT_VEHTYPE" speedFactor="0.95" vaporized=""/>
    <tripinfo id="210" depart="280.00" departLane="54_3way_213to4way_198_0" departPos="5.10" departSpeed="0.00" departDelay="0.01" arrival="289.00" arrivalLane="54_3way_213to4way_198_0" arrivalPos="85.60" arrivalSpeed="15.85" duration="9.00" routeLength="80.50" waitingTime="0.00" waitingCount="0" stopTime="0.00" timeLoss="4.06" rerouteNo="0" devices="tripinfo_210" vType="DEFAULT_VEHTYPE" speedFactor="1.20" vaporized=""/>
    <tripinfo id="4" depart="6.00" departLane="125_4way_108to4way_93_0" departPos="5.10" departSpeed="0.00" departDelay="0.67" arrival="295.00" arrivalLane="408_4way_87to4way_88_0" arrivalPos="85.60" arrivalSpeed="13.84" duration="289.00" routeLength="1180.30" waitingTime="173.00" waitingCount="4" stopTime="0.00" timeLoss="204.44" rerouteNo="0" devices="tripinfo_4" vType="DEFAULT_VEHTYPE" speedFactor="1.02" vaporized=""/>
    <tripinfo id="49" depart="66.00" departLane="46_3way_2to4way_17_0" departPos="5.10" departSpeed="0.00" departDelay="0.67" arrival="299.00" arrivalLane="331_4way_40to4way_41_0" arrivalPos="85.60" arrivalSpeed="14.81" duration="233.00" routeLength="1075.13" waitingTime="124.00" waitingCount="3" stopTime="0.00" timeLoss="160.39" rerouteNo="0" devices="tripinfo_49" vType="DEFAULT_VEHTYPE" speedFactor="1.08" vaporized=""/>
    <tripinfo id="172" depart="230.00" departLane="102_3way_89to4way_88_0" departPos="5.10" departSpeed="0.00" departDelay="0.67" arrival="302.00" arrivalLane="145_4way_115to4way_130_0" arrivalPos="85.60" arrivalSpeed="11.92" duration="72.00" routeLength="675.13" waitingTime="8.00" waitingCount="1" stopTime="0.00" timeLoss="18.14" rerouteNo="0" devices="tripinfo_172" vType="DEFAULT_VEHTYPE" speedFactor="0.92" vaporized=""/>
    <tripinfo id="52" depart="70.00" departLane="212_4way_171to4way_156_0" departPos="5.10" departSpeed="0.00" departDelay="0.67" arrival="312.00" arrivalLane="338_4way_47to4way_46_0" arrivalPos="85.60" arrivalSpeed="7.05" duration="242.00" routeLength="1275.13" waitingTime="119.00" waitingCount="4" stopTime="0.00" timeLoss="151.99" rerouteNo="0" devices="tripinfo_52" vType="DEFAULT_VEHTYPE" speedFactor="1.03" vaporized=""/>
    <tripinfo id="110" depart="147.00" departLane="224_4way_176to4way_161_0" departPos="5.10" departSpeed="0.00" departDelay="0.34" arrival="316.00" arrivalLane="213_4way_158to4way_157_0" arrivalPos="85.60" arrivalSpeed="14.35" duration="169.00" routeLength="475.13" waitingTime="112.00" waitingCount="3" stopTime="0.00" timeLoss="135.72" rerouteNo="0" devices="tripinfo_110" vType="DEFAULT_VEHTYPE" speedFactor="1.05" vaporized=""/>
    <tripinfo id="120" depart="160.00" departLane="41_3way_209to3way_194_0" departPos="5.10" departSpeed="0.00" departDelay="0.00" arrival="316.00" arrivalLane="196_4way_147to4way_146_0" arrivalPos="85.60" arrivalSpeed="13.72" duration="156.00" routeLength="675.13" waitingTime="91.00" waitingCount="2" stopTime="0.00" timeLoss="109.66" rerouteNo="0" devices="tripinfo_120" vType="DEFAULT_VEHTYPE" speedFactor="1.06" vaporized=""/>