<?xml version="1.0" encoding="UTF-8"?>

<!-- generated on 2023-07-29 19:22:27 by Eclipse SUMO sumo Version 1.12.0
<configuration xmlns:xsi="http://www.w3.org/2001/XMLSchema-instance" xsi:noNamespaceSchemaLocation="http://sumo.dlr.de/xsd/sumoConfiguration.xsd">

    <input>
        <net-file value="../../data_generation/sq.net.xml"/>
        <route-files value="../../data_generation/sq.rou.xml"/>
    </input>

    <output>
        <tripinfo-output value="tripinfo.xml"/>
        <statistic-output value="statistic.xml"/>
    </output>

    <time>
        <begin value="0"/>
        <end value="3600"/>
    </time>

    <processing>
        <time-to-teleport value="-1"/>
    </processing>

    <traci_server>
        <remote-port value="40421"/>
    </traci_server>

    <random_number>
        <seed value="1395"/>
    </random_number>

    <gui_only>
        <gui-settings-file value="../../data_generation/view_HY_0402.xml"/>
    </gui_only>

</configuration>
-->

<tripinfos xmlns:xsi="http://www.w3.org/2001/XMLSchema-instance" xsi:noNamespaceSchemaLocation="http://sumo.dlr.de/xsd/tripinfo_file.xsd">
    <tripinfo id="1" depart="1.00" departLane="373_4way_66to4way_67_0" departPos="5.10" departSpeed="0.00" departDelay="0.83" arrival="10.00" arrivalLane="373_4way_66to4way_67_0" arrivalPos="85.60" arrivalSpeed="13.60" duration="9.00" routeLength="80.50" waitingTime="0.00" waitingCount="0" stopTime="0.00" timeLoss="3.33" rerouteNo="0" devices="tripinfo_1" vType="DEFAULT_VEHTYPE" speedFactor="1.04" vaporized=""/>
    <tripinfo id="22" depart="4.00" departLane="403_4way_98to4way_83_0" departPos="5.10" departSpeed="0.00" departDelay="0.33" arrival="13.00" arrivalLane="403_4way_98to4way_83_0" arrivalPos="85.60" arrivalSpeed="13.26" duration="9.00" routeLength="80.50" waitingTime="0.00" waitingCount="0" stopTime="0.00" timeLoss="2.91" rerouteNo="0" devices="tripinfo_22" vType="DEFAULT_VEHTYPE" speedFactor="1.00" vaporized=""/>
    <tripinfo id="47" depart="8.00" departLane="40_3way_180to4way_181_0" departPos="5.10" departSpeed="0.00" departDelay="0.17" arrival="18.00" arrivalLane="40_3way_180to4way_181_0" arrivalPos="85.60" arrivalSpeed="12.40" duration="10.00" routeLength="80.50" waitingTime="0.00" waitingCount="0" stopTime="0.00" timeLoss="3.02" rerouteNo="0" devices="tripinfo_47" vType="DEFAULT_VEHTYPE" speedFactor="0.90" vaporized=""/>
    <tripinfo id="24" depart="4.00" departLane="340_4way_48to4way_47_0" departPos="5.10" departSpeed="0.00" departDelay="0.00" arrival="31.00" arrivalLane="366_4way_62to4way_77_0" arrivalPos="85.60" arrivalSpeed="12.92" duration="27.00" routeLength="275.13" waitingTime="0.00" waitingCount="0" stopTime="0.00" timeLoss="5.26" rerouteNo="0" devices="tripinfo_24" vType="DEFAULT_VEHTYPE" speedFactor="0.97" vaporized=""/>
    <tripinfo id="82" depart="14.00" departLane="171_4way_131to4way_132_0" departPos="5.10" departSpeed="0.00" departDelay="0.34" arrival="31.00" arrivalLane="173_4way_132to4way_133_0" arrivalPos="85.60" arrivalSpeed="12.87" duration="17.00" routeLength="180.50" waitingTime="0.00" waitingCount="0" stopTime="0.00" timeLoss="3.83" rerouteNo="0" devices="tripinfo_82" vType="DEFAULT_VEHTYPE" speedFactor="0.99" vaporized=""/>
    <tripinfo id="115" depart="21.00" departLane="99_3way_75to4way_76_0" departPos="5.10" departSpeed="0.00" departDelay="1.84" arrival="31.00" arrivalLane="99_3way_75to4way_76_0" arrivalPos="85.60" arrivalSpeed="11.56" duration="10.00" routeLength="80.50" waitingTime="0.00" waitingCount="0" stopTime="0.00" timeLoss="3.51" rerouteNo="0" devices="tripinfo_115" vType="DEFAULT_VEHTYPE" speedFactor="0.92" vaporized=""/>
    <tripinfo id="7" depart="2.00" departLane="7_3way_119to3way_104_0" departPos="5.10" departSpeed="0.00" departDelay="0.83" arrival="36.00" arrivalLane="88_3way_74to3way_59_0" arrivalPos="85.60" arrivalSpeed="12.77" duration="34.00" routeLength="380.50" waitingTime="0.00" waitingCount="0" stopTime="0.00" timeLoss="4.49" rerouteNo="0" devices="tripinfo_7" vType="DEFAULT_VEHTYPE" speedFactor="0.95" vaporized=""/>
    <tripinfo id="108" depart="18.00" departLane="125_4way_108to4way_93_0" departPos="5.10" departSpeed="0.00" departDelay="0.01" arrival="39.00" arrivalLane="410_4way_93to4way_92_0" arrivalPos="85.60" arrivalSpeed="11.39" duration="21.00" routeLength="175.13" waitingTime="0.00" waitingCount="0" stopTime="0.00" timeLoss="4.89" rerouteNo="0" devices="tripinfo_108" vType="DEFAULT_VEHTYPE" speedFactor="0.88" vaporized=""/>
    <tripinfo id="156" depart="26.00" departLane="7_3way_119to3way_104_0" departPos="5.10" departSpeed="0.00" departDelay="0.01" arrival="44.00" arrivalLane="8_3way_104to3way_89_0" arrivalPos="85.60" arrivalSpeed="12.46" duration="18.00" routeLength="180.50" waitingTime="0.00" waitingCount="0" stopTime="0.00" timeLoss="3.18" rerouteNo="0" devices="tripinfo_156" vType="DEFAULT_VEHTYPE" speedFactor="0.91" vaporized=""/>
    <tripinfo id="206" depart="35.00" departLane="93_4way_61to3way_60_0" departPos="5.10" departSpeed="0.00" departDelay="0.68" arrival="44.00" arrivalLane="93_4way_61to3way_60_0" arrivalPos="85.60" arrivalSpeed="12.31" duration="9.00" routeLength="80.50" waitingTime="0.00" waitingCount="0" stopTime="0.00" timeLoss="2.65" rerouteNo="0" devices="tripinfo_206" vType="DEFAULT_VEHTYPE" speedFactor="0.92" vaporized=""/>
    <tripinfo id="210" depart="35.00" departLane="54_3way_213to4way_198_0" departPos="5.10" departSpeed="0.00" departDelay="0.01" arrival="44.00" arrivalLane="54_3way_213to4way_198_0" arrivalPos="85.60" arrivalSpeed="16.01" duration="9.00" routeLength="80.50" waitingTime="0.00" waitingCount="0" stopTime="0.00" timeLoss="3.33" rerouteNo="0" devices="tripinfo_210" vType="DEFAULT_VEHTYPE" speedFactor="1.20" vaporized=""/>
    <tripinfo id="78" depart="13.00" departLane="187_4way_141to4way_156_0" departPos="5.10" departSpeed="0.00" departDelay="0.00" arrival="54.00" arrivalLane="217_4way_159to4way_160_0" arrivalPos="85.60" arrivalSpeed="13.57" duration="41.00" routeLength="475.13" waitingTime="0.00" waitingCount="0" stopTime="0.00" timeLoss="6.51" rerouteNo="0" devices="tripinfo_78" vType="DEFAULT_VEHTYPE" speedFactor="1.03" vaporized=""/>
    <tripinfo id="204" depart="34.00" departLane="345_4way_64to4way_49_0" departPos="5.10" departSpeed="0.00" departDelay="0.01" arrival="63.00" arrivalLane="81_4way_19to3way_4_0" arrivalPos="85.60" arrivalSpeed="15.13" duration="29.00" routeLength="380.50" waitingTime="0.00" waitingCount="0" stopTime="0.00" timeLoss="4.41" rerouteNo="0" devices="tripinfo_204" vType="DEFAULT_VEHTYPE" speedFactor="1.12" vaporized=""/>
    <tripinfo id="331" depart="56.00" departLane="233_4way_168to4way_183_0" departPos="5.10" departSpeed="0.00" departDelay="0.85" arrival="65.00" arrivalLane="233_4way_168to4way_183_0" arrivalPos="85.60" arrivalSpeed="11.79" duration="9.00" routeLength="80.50" waitingTime="0.00" waitingCount="0" stopTime="0.00" timeLoss="2.72" rerouteNo="0" devices="tripinfo_331" vType="DEFAULT_VEHTYPE" speedFactor="0.94" vaporized=""/>
    <tripinfo id="350" depart="59.00" departLane="8_3way_104to3way_89_0" departPos="5.10" departSpeed="0.00" departDelay="0.69" arrival="68.00" arrivalLane="8_3way_104to3way_89_0" arrivalPos="85.60" arrivalSpeed="13.65" duration="9.00" routeLength="80.50" waitingTime="0.00" waitingCount="0" stopTime="0.00" timeLoss="3.41" rerouteNo="0" devices="tripinfo_350" vType="DEFAULT_VEHTYPE" speedFactor="1.07" vaporized=""/>
    <tripinfo id="317" depart="53.00" departLane="37_3way_179to3way_194_0" departPos="5.10" departSpeed="0.00" departDelay="0.19" arrival="69.00" arrivalLane="41_3way_194to3way_209_0" arrivalPos="85.60" arrivalSpeed="14.26" duration="16.00" routeLength="180.50" waitingTime="0.00" waitingCount="0" stopTime="0.00" timeLoss="3.78" rerouteNo="0" devices="tripinfo_317" vType="DEFAULT_VEHTYPE" speedFactor="1.11" vaporized=""/>
    <tripinfo id="249" depart="42.00" departLane="368_4way_78to4way_63_0" departPos="5.10" departSpeed="0.00" departDelay="0.52" arrival="70.00" arrivalLane="365_4way_63to4way_62_0" arrivalPos="85.60" arrivalSpeed="5.16" duration="28.00" routeLength="175.13" waitingTime="6.00" waitingCount="1" stopTime="0.00" timeLoss="16.18" rerouteNo="0" devices="tripinfo_249" vType="DEFAULT_VEHTYPE" speedFactor="1.12" vaporized=""/>
    <tripinfo id="255" depart="43.00" departLane="165_4way_128to4way_129_0" departPos="5.10" departSpeed="0.00" departDelay="0.52" arrival="70.00" arrivalLane="165_4way_128to4way_129_0" arrivalPos="85.60" arrivalSpeed="5.43" duration="27.00" routeLength="80.50" waitingTime="13.00" waitingCount="1" stopTime="0.00" timeLoss="19.22" rerouteNo="0" devices="tripinfo_255" vType="DEFAULT_VEHTYPE" speedFactor="0.76" vaporized=""/>
    <tripinfo id="18" depart="6.00" departLane="137_4way_112to4way_97_0" departPos="5.10" departSpeed="0.00" departDelay="3.00" arrival="71.00" arrivalLane="137_4way_112to4way_97_0" arrivalPos="85.60" arrivalSpeed="5.24" duration="65.00" routeLength="80.50" waitingTime="50.00" waitingCount="1" stopTime="0.00" timeLoss="58.70" rerouteNo="0" devices="tripinfo_18" vType="DEFAULT_VEHTYPE" speedFactor="0.96" vaporized=""/>
    <tripinfo id="167" depart="28.00" departLane="357_4way_55to4way_70_0" departPos="5.10" departSpeed="0.00" departDelay="0.18" arrival="71.00" arrivalLane="357_4way_55to4way_70_0" arrivalPos="85.60" arrivalSpeed="5.58" duration="43.00" routeLength="80.50" waitingTime="28.00" waitingCount="1" stopTime="0.00" timeLoss="35.85" rerouteNo="0" devices="tripinfo_167" vType="DEFAULT_VEHTYPE" speedFactor="0.85" vaporized=""/>
    <tripinfo id="26" depart="5.00" departLane="34_3way_164to4way_163_0" departPos="5.10" departSpeed="0.00" departDelay="0.67" arrival="77.00" arrivalLane="227_4way_163to4way_178_0" arrivalPos="85.60" arrivalSpeed="14.03" duration="72.00" routeLength="175.13" waitingTime="49.00" waitingCount="1" stopTime="0.00" timeLoss="58.44" rerouteNo="0" devices="tripinfo_26" vType="DEFAULT_VEHTYPE" speedFactor="1.03" vaporized=""/>
    <tripinfo id="73" depart="13.00" departLane="199_4way_147to4way_162_0" departPos="5.10" departSpeed="0.00" departDelay="0.84" arrival="77.00" arrivalLane="34_4way_163to3way_164_0" arrivalPos="85.60" arrivalSpeed="12.63" duration="64.00" routeLength="275.13" waitingTime="31.00" waitingCount="1" stopTime="0.00" timeLoss="42.58" rerouteNo="0" devices="tripinfo_73" vType="DEFAULT_VEHTYPE" speedFactor="0.98" vaporized=""/>
    <tripinfo id="83" depart="14.00" departLane="256_4way_33to4way_18_0" departPos="5.10" departSpeed="0.00" departDelay="0.17" arrival="77.00" arrivalLane="77_4way_18to3way_3_0" arrivalPos="85.60" arrivalSpeed="11.96" duration="63.00" routeLength="180.50" waitingTime="40.00" waitingCount="1" stopTime="0.00" timeLoss="48.71" rerouteNo="0" devices="tripinfo_83" vType="DEFAULT_VEHTYPE" speedFactor="0.93" vaporized=""/>
    <tripinfo id="93" depart="16.00" departLane="298_4way_22to4way_21_0" departPos="5.10" departSpeed="0.00" departDelay="0.51" arrival="77.00" arrivalLane="299_4way_21to4way_36_0" arrivalPos="85.60" arrivalSpeed="13.14" duration="61.00" routeLength="175.13" waitingTime="39.00" waitingCount="1" stopTime="0.00" timeLoss="47.34" rerouteNo="0" devices="tripinfo_93" vType="DEFAULT_VEHTYPE" speedFactor="1.00" vaporized=""/>
    <tripinfo id="163" depart="28.00" departLane="216_4way_173to4way_158_0" departPos="5.10" departSpeed="0.00" departDelay="0.84" arrival="77.00" arrivalLane="191_4way_158to4way_143_0" arrivalPos="85.60" arrivalSpeed="12.05" duration="49.00" routeLength="180.50" waitingTime="26.00" waitingCount="1" stopTime="0.00" timeLoss="35.13" rerouteNo="0" devices="tripinfo_163" vType="DEFAULT_VEHTYPE" speedFactor="0.94" vaporized=""/>
    <tripinfo id="186" depart="31.00" departLane="243_4way_172to4way_187_0" departPos="5.10" departSpeed="0.00" departDelay="0.01" arrival="77.00" arrivalLane="271_4way_188to4way_189_0" arrivalPos="85.60" arrivalSpeed="11.05" duration="46.00" routeLength="275.13" waitingTime="13.00" waitingCount="1" stopTime="0.00" timeLoss="22.77" rerouteNo="0" devices="tripinfo_186" vType="DEFAULT_VEHTYPE" speedFactor="0.87" vaporized=""/>
    <tripinfo id="209" depart="35.00" departLane="227_4way_178to4way_163_0" departPos="5.10" departSpeed="0.00" departDelay="0.18" arrival="77.00" arrivalLane="175_4way_148to4way_133_0" arrivalPos="85.60" arrivalSpeed="12.72" duration="42.00" routeLength="280.50" waitingTime="12.00" waitingCount="1" stopTime="0.00" timeLoss="20.41" rerouteNo="0" devices="tripinfo_209" vType="DEFAULT_VEHTYPE" speedFactor="0.95" vaporized=""/>
    <tripinfo id="273" depart="46.00" departLane="178_4way_137to4way_138_0" departPos="5.10" departSpeed="0.00" departDelay="0.52" arrival="77.00" arrivalLane="182_4way_139to4way_140_0" arrivalPos="85.60" arrivalSpeed="13.28" duration="31.00" routeLength="280.50" waitingTime="3.00" waitingCount="1" stopTime="0.00" timeLoss="10.81" rerouteNo="0" devices="tripinfo_273" vType="DEFAULT_VEHTYPE" speedFactor="1.04" vaporized=""/>
    <tripinfo id="304" depart="51.00" departLane="203_4way_152to4way_153_0" departPos="5.10" departSpeed="0.00" departDelay="0.35" arrival="77.00" arrivalLane="205_4way_153to4way_154_0" arrivalPos="85.60" arrivalSpeed="13.90" duration="26.00" routeLength="180.50" waitingTime="3.00" waitingCount="1" stopTime="0.00" timeLoss="12.71" rerouteNo="0" devices="tripinfo_304" vType="DEFAULT_VEHTYPE" speedFactor="1.00" vaporized=""/>
    <tripinfo id="127" depart="22.00" departLane="8_3way_104to3way_89_0" departPos="5.10" departSpeed="0.00" departDelay="0.84" arrival="78.00" arrivalLane="408_4way_88to4way_87_0" arrivalPos="85.60" arrivalSpeed="8.59" duration="56.00" routeLength="275.13" waitingTime="20.00" waitingCount="1" stopTime="0.00" timeLoss="35.05" rerouteNo="0" devices="tripinfo_127" vType="DEFAULT_VEHTYPE" speedFactor="1.00" vaporized=""/>
    <tripinfo id="307" depart="52.00" departLane="328_4way_53to4way_38_0" departPos="5.10" departSpeed="0.00" departDelay="0.85" arrival="78.00" arrivalLane="300_4way_23to4way_22_0" arrivalPos="85.60" arrivalSpeed="13.81" duration="26.00" routeLength="275.13" waitingTime="0.00" waitingCount="0" stopTime="0.00" timeLoss="6.06" rerouteNo="0" devices="tripinfo_307" vType="DEFAULT_VEHTYPE" speedFactor="1.04" vaporized=""/>
    <tripinfo id="312" depart="52.00" departLane="272_4way_188to4way_203_0" departPos="5.10" departSpeed="0.00" departDelay="0.02" arrival="79.00" arrivalLane="293_4way_203to4way_204_0" arrivalPos="85.60" arrivalSpeed="12.69" duration="27.00" routeLength="175.13" waitingTime="5.00" waitingCount="1" stopTime="0.00" timeLoss="13.54" rerouteNo="0" devices="tripinfo_312" vType="DEFAULT_VEHTYPE" speedFactor="0.98" vaporized=""/>
    <tripinfo id="272" depart="46.00" departLane="246_4way_175to4way_174_0" departPos="5.10" departSpeed="0.00" departDelay="0.68" arrival="80.00" arrivalLane="244_4way_174to4way_173_0" arrivalPos="85.60" arrivalSpeed="8.89" duration="34.00" routeLength="180.50" waitingTime="8.00" waitingCount="1" stopTime="0.00" timeLoss="15.51" rerouteNo="0" devices="tripinfo_272" vType="DEFAULT_VEHTYPE" speedFactor="0.72" vaporized=""/>
    <tripinfo id="247" depart="42.00" departLane="232_4way_168to4way_169_0" departPos="5.10" departSpeed="0.00" departDelay="0.85" arrival="81.00" arrivalLane="208_4way_169to4way_154_0" arrivalPos="85.60" arrivalSpeed="14.34" duration="39.00" routeLength="175.13" waitingTime="16.00" waitingCount="1" stopTime="0.00" timeLoss="26.46" rerouteNo="0" devices="tripinfo_247" vType="DEFAULT_VEHTYPE" speedFactor="1.07" vaporized=""/>
    <tripinfo id="430" depart="72.00" departLane="228_4way_167to4way_166_0" departPos="5.10" departSpeed="0.00" departDelay="0.36" arrival="82.00" arrivalLane="228_4way_167to4way_166_0" arrivalPos="85.60" arrivalSpeed="11.28" duration="10.00" routeLength="80.50" waitingTime="0.00" waitingCount="0" stopTime="0.00" timeLoss="3.12" rerouteNo="0" devices="tripinfo_430" vType="DEFAULT_VEHTYPE" speedFactor="0.90" vaporized=""/>
    <tripinfo id="260" depart="44.00" departLane="103_4way_24to3way_9_0" departPos="5.10" departSpeed="0.00" departDelay="0.68" arrival="83.00" arrivalLane="94_3way_8to3way_7_0" arrivalPos="85.60" arrivalSpeed="15.36" duration="39.00" routeLength="275.13" waitingTime="10.00" waitingCount="1" stopTime="0.00" timeLoss="20.06" rerouteNo="0" devices="tripinfo_260" vType="DEFAULT_VEHTYPE" speedFactor="1.12" vaporized=""/>
    <tripinfo id="149" depart="25.00" departLane="116_4way_88to4way_103_0" departPos="5.10" departSpeed="0.00" departDelay="0.18" arrival="85.00" arrivalLane="150_4way_118to4way_133_0" arrivalPos="85.60" arrivalSpeed="12.68" duration="60.00" routeLength="280.50" waitingTime="30.00" waitingCount="1" stopTime="0.00" timeLoss="38.24" rerouteNo="0" devices="tripinfo_149" vType="DEFAULT_VEHTYPE" speedFactor="0.95" vaporized=""/>
    <tripinfo id="223" depart="38.00" departLane="114_4way_87to4way_102_0" departPos="5.10" departSpeed="0.00" departDelay="0.85" arrival="86.00" arrivalLane="148_4way_117to4way_118_0" arrivalPos="85.60" arrivalSpeed="13.43" duration="48.00" routeLength="275.13" waitingTime="16.00" waitingCount="1" stopTime="0.00" timeLoss="27.67" rerouteNo="0" devices="tripinfo_223" vType="DEFAULT_VEHTYPE" speedFactor="1.03" vaporized=""/>
    <tripinfo id="364" depart="61.00" departLane="125_4way_93to4way_108_0" departPos="5.10" departSpeed="0.00" departDelay="0.36" arrival="89.00" arrivalLane="126_4way_109to4way_110_0" arrivalPos="85.60" arrivalSpeed="13.16" duration="28.00" routeLength="275.13" waitingTime="0.00" waitingCount="0" stopTime="0.00" timeLoss="6.21" rerouteNo="0" devices="tripinfo_364" vType="DEFAULT_VEHTYPE" speedFactor="0.96" vaporized=""/>
    <tripinfo id="142" depart="24.00" departLane="62_3way_217to4way_202_0" departPos="5.10" departSpeed="0.00" departDelay="0.34" arrival="91.00" arrivalLane="259_4way_183to4way_182_0" arrivalPos="85.60" arrivalSpeed="14.40" duration="67.00" routeLength="675.13" waitingTime="7.00" waitingCount="1" stopTime="0.00" timeLoss="21.32" rerouteNo="0" devices="tripinfo_142" vType="DEFAULT_VEHTYPE" speedFactor="1.09" vaporized=""/>
    <tripinfo id="407" depart="68.00" departLane="259_4way_183to4way_182_0" departPos="5.10" departSpeed="0.00" departDelay="0.19" arrival="93.00" arrivalLane="40_4way_181to3way_180_0" arrivalPos="85.60" arrivalSpeed="12.98" duration="25.00" routeLength="280.50" waitingTime="0.00" waitingCount="0" stopTime="0.00" timeLoss="3.91" rerouteNo="0" devices="tripinfo_407" vType="DEFAULT_VEHTYPE" speedFactor="0.99" vaporized=""/>
    <tripinfo id="481" depart="81.00" departLane="391_4way_77to4way_92_0" departPos="5.10" departSpeed="0.00" departDelay="0.86" arrival="98.00" arrivalLane="122_4way_92to4way_107_0" arrivalPos="85.60" arrivalSpeed="13.07" duration="17.00" routeLength="180.50" waitingTime="0.00" waitingCount="0" stopTime="0.00" timeLoss="3.14" rerouteNo="0" devices="tripinfo_481" vType="DEFAULT_VEHTYPE" speedFactor="0.97" vaporized=""/>
    <tripinfo id="489" depart="82.00" departLane="194_4way_145to4way_146_0" departPos="5.10" departSpeed="0.00" departDelay="0.53" arrival="98.00" arrivalLane="196_4way_146to4way_147_0" arrivalPos="85.60" arrivalSpeed="15.40" duration="16.00" routeLength="180.50" waitingTime="0.00" waitingCount="0" stopTime="0.00" timeLoss="3.96" rerouteNo="0" devices="tripinfo_489" vType="DEFAULT_VEHTYPE" speedFactor="1.15" vaporized=""/>
    <tripinfo id="97" depart="17.00" departLane="397_4way_80to4way_95_0" departPos="5.10" departSpeed="0.00" departDelay="0.84" arrival="99.00" arrivalLane="165_4way_128to4way_129_0" arrivalPos="85.60" arrivalSpeed="13.47" duration="82.00" routeLength="675.13" waitingTime="23.00" waitingCount="1" stopTime="0.00" timeLoss="34.48" rerouteNo="0" devices="tripinfo_97" vType="DEFAULT_VEHTYPE" speedFactor="1.06" vaporized=""/>
    <tripinfo id="20" depart="4.00" departLane="395_4way_94to4way_79_0" departPos="5.10" departSpeed="0.00" departDelay="0.67" arrival="101.00" arrivalLane="317_4way_34to4way_33_0" arrivalPos="85.60" arrivalSpeed="11.35" duration="97.00" routeLength="475.13" waitingTime="41.00" waitingCount="1" stopTime="0.00" timeLoss="57.38" rerouteNo="0" devices="tripinfo_20" vType="DEFAULT_VEHTYPE" speedFactor="0.89" vaporized=""/>
    <tripinfo id="446" depart="75.00" departLane="130_4way_110to4way_125_0" departPos="5.10" departSpeed="0.00" departDelay="0.70" arrival="101.00" arrivalLane="161_4way_126to4way_127_0" arrivalPos="85.60" arrivalSpeed="13.72" duration="26.00" routeLength="275.13" waitingTime="0.00" waitingCount="0" stopTime="0.00" timeLoss="6.11" rerouteNo="0" devices="tripinfo_446" vType="DEFAULT_VEHTYPE" speedFactor="1.07" vaporized=""/>
    <tripinfo id="530" depart="91.00" departLane="45_3way_3to3way_2_0" departPos="5.10" departSpeed="0.00" departDelay="2.70" arrival="101.00" arrivalLane="45_3way_3to3way_2_0" arrivalPos="85.60" arrivalSpeed="10.65" duration="10.00" routeLength="80.50" waitingTime="0.00" waitingCount="0" stopTime="0.00" timeLoss="2.96" rerouteNo="0" devices="tripinfo_530" vType="DEFAULT_VEHTYPE" speedFactor="0.85" vaporized=""/>
    <tripinfo id="117" depart="21.00" departLane="342_4way_49to4way_48_0" departPos="5.10" departSpeed="0.00" departDelay="1.51" arrival="103.00" arrivalLane="11_3way_90to3way_105_0" arrivalPos="85.60" arrivalSpeed="11.91" duration="82.00" routeLength="775.13" waitingTime="7.00" waitingCount="1" stopTime="0.00" timeLoss="19.09" rerouteNo="0" devices="tripinfo_117" vType="DEFAULT_VEHTYPE" speedFactor="0.91" vaporized=""/>
    <tripinfo id="12" depart="2.00" departLane="270_4way_187to4way_202_0" departPos="5.10" departSpeed="0.00" departDelay="0.00" arrival="108.00" arrivalLane="71_3way_222to3way_223_0" arrivalPos="85.60" arrivalSpeed="7.89" duration="106.00" routeLength="775.13" waitingTime="39.00" waitingCount="1" stopTime="0.00" timeLoss="57.01" rerouteNo="0" devices="tripinfo_12" vType="DEFAULT_VEHTYPE" speedFactor="1.16" vaporized=""/>
    <tripinfo id="45" depart="8.00" departLane="400_4way_83to4way_82_0" departPos="5.10" departSpeed="0.00" departDelay="0.50" arrival="108.00" arrivalLane="391_4way_77to4way_92_0" arrivalPos="85.60" arrivalSpeed="12.84" duration="100.00" routeLength="675.13" waitingTime="39.00" waitingCount="1" stopTime="0.00" timeLoss="50.85" rerouteNo="0" devices="tripinfo_45" vType="DEFAULT_VEHTYPE" speedFactor="1.00" vaporized=""/>
    <tripinfo id="293" depart="49.00" departLane="112_4way_102to4way_103_0" departPos="5.10" departSpeed="0.00" departDelay="0.19" arrival="109.00" arrivalLane="74_3way_44to3way_29_0" arrivalPos="85.60" arrivalSpeed="12.31" duration="60.00" routeLength="675.13" waitingTime="0.00" waitingCount="0" stopTime="0.00" timeLoss="7.79" rerouteNo="0" devices="tripinfo_293" vType="DEFAULT_VEHTYPE" speedFactor="0.95" vaporized=""/>
    <tripinfo id="349" depart="59.00" departLane="84_3way_45to3way_60_0" departPos="5.10" departSpeed="0.00" departDelay="0.86" arrival="109.00" arrivalLane="390_4way_77to4way_78_0" arrivalPos="85.60" arrivalSpeed="12.19" duration="50.00" routeLength="475.13" waitingTime="0.00" waitingCount="0" stopTime="0.00" timeLoss="10.33" rerouteNo="0" devices="tripinfo_349" vType="DEFAULT_VEHTYPE" speedFactor="0.89" vaporized=""/>
    <tripinfo id="592" depart="99.00" departLane="302_4way_23to4way_24_0" departPos="5.10" departSpeed="0.00" departDelay="0.37" arrival="109.00" arrivalLane="302_4way_23to4way_24_0" arrivalPos="85.60" arrivalSpeed="13.54" duration="10.00" routeLength="80.50" waitingTime="0.00" waitingCount="0" stopTime="0.00" timeLoss="3.75" rerouteNo="0" devices="tripinfo_592" vType="DEFAULT_VEHTYPE" speedFactor="1.05" vaporized=""/>
    <tripinfo id="269" depart="45.00" departLane="101_4way_23to3way_8_0" departPos="5.10" departSpeed="0.00" departDelay="0.18" arrival="114.00" arrivalLane="2_3way_2to3way_1_0" arrivalPos="85.60" arrivalSpeed="15.20" duration="69.00" routeLength="775.13" waitingTime="2.00" waitingCount="1" stopTime="0.00" timeLoss="17.36" rerouteNo="0" devices="tripinfo_269" vType="DEFAULT_VEHTYPE" speedFactor="1.11" vaporized=""/>
    <tripinfo id="678" depart="113.00" departLane="304_4way_25to4way_24_0" departPos="5.10" departSpeed="0.00" departDelay="0.04" arrival="122.00" arrivalLane="304_4way_25to4way_24_0" arrivalPos="85.60" arrivalSpeed="12.80" duration="9.00" routeLength="80.50" waitingTime="0.00" waitingCount="0" stopTime="0.00" timeLoss="2.48" rerouteNo="0" devices="tripinfo_678" vType="DEFAULT_VEHTYPE" speedFactor="0.94" vaporized=""/>
    <tripinfo id="621" depart="104.00" departLane="209_4way_155to4way_156_0" departPos="5.10" departSpeed="0.00" departDelay="0.54" arrival="124.00" arrivalLane="187_4way_156to4way_141_0" arrivalPos="85.60" arrivalSpeed="12.68" duration="20.00" routeLength="175.13" waitingTime="0.00" waitingCount="0" stopTime="0.00" timeLoss="4.89" rerouteNo="0" devices="tripinfo_621" vType="DEFAULT_VEHTYPE" speedFactor="0.95" vaporized=""/>
    <tripinfo id="106" depart="18.00" departLane="117_4way_106to4way_107_0" departPos="5.10" departSpeed="0.00" departDelay="0.34" arrival="125.00" arrivalLane="378_4way_83to4way_68_0" arrivalPos="85.60" arrivalSpeed="14.99" duration="107.00" routeLength="975.13" waitingTime="26.00" waitingCount="1" stopTime="0.00" timeLoss="45.41" rerouteNo="0" devices="tripinfo_106" vType="DEFAULT_VEHTYPE" speedFactor="1.16" vaporized=""/>
    <tripinfo id="652" depart="109.00" departLane="306_4way_25to4way_26_0" departPos="5.10" departSpeed="0.00" departDelay="0.38" arrival="126.00" arrivalLane="308_4way_26to4way_27_0" arrivalPos="85.60" arrivalSpeed="12.39" duration="17.00" routeLength="180.50" waitingTime="0.00" waitingCount="0" stopTime="0.00" timeLoss="2.97" rerouteNo="0" devices="tripinfo_652" vType="DEFAULT_VEHTYPE" speedFactor="0.97" vaporized=""/>
    <tripinfo id="673" depart="113.00" departLane="316_4way_47to4way_32_0" departPos="5.10" departSpeed="0.00" departDelay="0.88" arrival="129.00" arrivalLane="237_4way_32to4way_17_0" arrivalPos="85.60" arrivalSpeed="13.80" duration="16.00" routeLength="180.50" waitingTime="0.00" waitingCount="0" stopTime="0.00" timeLoss="3.12" rerouteNo="0" devices="tripinfo_673" vType="DEFAULT_VEHTYPE" speedFactor="1.04" vaporized=""/>
    <tripinfo id="168" depart="28.00" departLane="390_4way_78to4way_77_0" departPos="5.10" departSpeed="0.00" departDelay="0.01" arrival="130.00" arrivalLane="389_4way_76to4way_91_0" arrivalPos="85.60" arrivalSpeed="5.21" duration="102.00" routeLength="275.13" waitingTime="68.00" waitingCount="2" stopTime="0.00" timeLoss="83.47" rerouteNo="0" devices="tripinfo_168" vType="DEFAULT_VEHTYPE" speedFactor="1.10" vaporized=""/>
    <tripinfo id="267" depart="45.00" departLane="242_4way_173to4way_172_0" departPos="5.10" departSpeed="0.00" departDelay="0.52" arrival="130.00" arrivalLane="240_4way_172to4way_171_0" arrivalPos="85.60" arrivalSpeed="4.88" duration="85.00" routeLength="180.50" waitingTime="58.00" waitingCount="2" stopTime="0.00" timeLoss="73.24" rerouteNo="0" devices="tripinfo_267" vType="DEFAULT_VEHTYPE" speedFactor="1.11" vaporized=""/>
    <tripinfo id="270" depart="45.00" departLane="301_4way_22to4way_37_0" departPos="5.10" departSpeed="0.00" departDelay="0.02" arrival="130.00" arrivalLane="326_4way_37to4way_52_0" arrivalPos="85.60" arrivalSpeed="6.30" duration="85.00" routeLength="180.50" waitingTime="58.00" waitingCount="2" stopTime="0.00" timeLoss="72.83" rerouteNo="0" devices="tripinfo_270" vType="DEFAULT_VEHTYPE" speedFactor="1.09" vaporized=""/>
    <tripinfo id="548" depart="92.00" departLane="414_4way_96to4way_97_0" departPos="5.10" departSpeed="0.00" departDelay="0.70" arrival="130.00" arrivalLane="414_4way_96to4way_97_0" arrivalPos="85.60" arrivalSpeed="6.04" duration="38.00" routeLength="80.50" waitingTime="24.00" waitingCount="1" stopTime="0.00" timeLoss="31.89" rerouteNo="0" devices="tripinfo_548" vType="DEFAULT_VEHTYPE" speedFactor="0.97" vaporized=""/>
    <tripinfo id="513" depart="86.00" departLane="69_3way_221to3way_222_0" departPos="5.10" departSpeed="0.00" departDelay="0.53" arrival="134.00" arrivalLane="73_3way_223to4way_208_0" arrivalPos="85.60" arrivalSpeed="8.54" duration="48.00" routeLength="275.13" waitingTime="14.00" waitingCount="1" stopTime="0.00" timeLoss="23.68" rerouteNo="0" devices="tripinfo_513" vType="DEFAULT_VEHTYPE" speedFactor="0.85" vaporized=""/>
    <tripinfo id="193" depart="33.00" departLane="55_3way_214to3way_215_0" departPos="5.10" departSpeed="0.00" departDelay="0.85" arrival="135.00" arrivalLane="278_4way_205to4way_190_0" arrivalPos="85.60" arrivalSpeed="9.49" duration="102.00" routeLength="775.13" waitingTime="18.00" waitingCount="2" stopTime="0.00" timeLoss="34.80" rerouteNo="0" devices="tripinfo_193" vType="DEFAULT_VEHTYPE" speedFactor="0.85" vaporized=""/>
    <tripinfo id="429" depart="72.00" departLane="226_4way_162to4way_177_0" departPos="5.10" departSpeed="0.00" departDelay="0.53" arrival="136.00" arrivalLane="282_4way_192to4way_207_0" arrivalPos="85.60" arrivalSpeed="15.85" duration="64.00" routeLength="280.50" waitingTime="37.00" waitingCount="1" stopTime="0.00" timeLoss="46.64" rerouteNo="0" devices="tripinfo_429" vType="DEFAULT_VEHTYPE" speedFactor="1.16" vaporized=""/>
    <tripinfo id="655" depart="110.00" departLane="272_4way_188to4way_203_0" departPos="5.10" departSpeed="0.00" departDelay="0.88" arrival="136.00" arrivalLane="294_4way_204to4way_205_0" arrivalPos="85.60" arrivalSpeed="11.46" duration="26.00" routeLength="275.13" waitingTime="0.00" waitingCount="0" stopTime="0.00" timeLoss="7.60" rerouteNo="0" devices="tripinfo_655" vType="DEFAULT_VEHTYPE" speedFactor="1.11" vaporized=""/>
    <tripinfo id="109" depart="19.00" departLane="309_4way_41to4way_26_0" departPos="5.10" departSpeed="0.00" departDelay="0.84" arrival="137.00" arrivalLane="300_4way_23to4way_22_0" arrivalPos="85.60" arrivalSpeed="14.07" duration="118.00" routeLength="475.13" waitingTime="66.00" waitingCount="2" stopTime="0.00" timeLoss="83.77" rerouteNo="0" devices="tripinfo_109" vType="DEFAULT_VEHTYPE" speedFactor="1.04" vaporized=""/>