<?xml version="1.0" encoding="UTF-8"?>

<!-- generated on 2023-08-07 04:04:20 by Eclipse SUMO sumo Version 1.12.0
<configuration xmlns:xsi="http://www.w3.org/2001/XMLSchema-instance" xsi:noNamespaceSchemaLocation="http://sumo.dlr.de/xsd/sumoConfiguration.xsd">

    <input>
        <net-file value="../../data_generation/sq.net.xml"/>
        <route-files value="../../data_generation/sq.rou.xml"/>
    </input>

    <output>
        <tripinfo-output value="tripinfo.xml"/>
        <statistic-output value="statistic.xml"/>
    </output>

    <time>
        <begin value="0"/>
        <end value="3600"/>
    </time>

    <processing>
        <time-to-teleport value="-1"/>
    </processing>

    <traci_server>
        <remote-port value="56895"/>
    </traci_server>

    <random_number>
        <seed value="1395"/>
    </random_number>

    <gui_only>
        <gui-settings-file value="../../data_generation/view_HY_0402.xml"/>
    </gui_only>

</configuration>
-->

<tripinfos xmlns:xsi="http://www.w3.org/2001/XMLSchema-instance" xsi:noNamespaceSchemaLocation="http://sumo.dlr.de/xsd/tripinfo_file.xsd">
    <tripinfo id="22" depart="2.00" departLane="478_4way_291to4way_271_0" departPos="5.10" departSpeed="0.00" departDelay="0.17" arrival="11.00" arrivalLane="478_4way_291to4way_271_0" arrivalPos="85.60" arrivalSpeed="13.81" duration="9.00" routeLength="80.50" waitingTime="0.00" waitingCount="0" stopTime="0.00" timeLoss="3.22" rerouteNo="0" devices="tripinfo_22" vType="DEFAULT_VEHTYPE" speedFactor="1.00" vaporized=""/>
    <tripinfo id="18" depart="5.00" departLane="359_4way_230to4way_210_0" departPos="5.10" departSpeed="0.00" departDelay="3.50" arrival="23.00" arrivalLane="322_4way_210to4way_190_0" arrivalPos="85.60" arrivalSpeed="12.92" duration="18.00" routeLength="180.50" waitingTime="0.00" waitingCount="0" stopTime="0.00" timeLoss="3.62" rerouteNo="0" devices="tripinfo_18" vType="DEFAULT_VEHTYPE" speedFactor="0.96" vaporized=""/>
    <tripinfo id="160" depart="14.00" departLane="90_3way_382to4way_362_0" departPos="5.10" departSpeed="0.00" departDelay="0.67" arrival="24.00" arrivalLane="90_3way_382to4way_362_0" arrivalPos="85.60" arrivalSpeed="11.91" duration="10.00" routeLength="80.50" waitingTime="0.00" waitingCount="0" stopTime="0.00" timeLoss="2.70" rerouteNo="0" devices="tripinfo_160" vType="DEFAULT_VEHTYPE" speedFactor="0.88" vaporized=""/>
    <tripinfo id="167" depart="14.00" departLane="697_4way_54to4way_74_0" departPos="5.10" departSpeed="0.00" departDelay="0.09" arrival="24.00" arrivalLane="697_4way_54to4way_74_0" arrivalPos="85.60" arrivalSpeed="10.76" duration="10.00" routeLength="80.50" waitingTime="0.00" waitingCount="0" stopTime="0.00" timeLoss="2.38" rerouteNo="0" devices="tripinfo_167" vType="DEFAULT_VEHTYPE" speedFactor="0.85" vaporized=""/>
    <tripinfo id="198" depart="17.00" departLane="540_4way_324to4way_304_0" departPos="5.10" departSpeed="0.00" departDelay="0.51" arrival="27.00" arrivalLane="540_4way_324to4way_304_0" arrivalPos="85.60" arrivalSpeed="10.84" duration="10.00" routeLength="80.50" waitingTime="0.00" waitingCount="0" stopTime="0.00" timeLoss="3.05" rerouteNo="0" devices="tripinfo_198" vType="DEFAULT_VEHTYPE" speedFactor="0.87" vaporized=""/>
    <tripinfo id="27" depart="3.00" departLane="41_3way_180to3way_200_0" departPos="5.10" departSpeed="0.00" departDelay="0.75" arrival="30.00" arrivalLane="54_3way_220to4way_221_0" arrivalPos="85.60" arrivalSpeed="14.26" duration="27.00" routeLength="275.13" waitingTime="0.00" waitingCount="0" stopTime="0.00" timeLoss="6.41" rerouteNo="0" devices="tripinfo_27" vType="DEFAULT_VEHTYPE" speedFactor="1.03" vaporized=""/>
    <tripinfo id="332" depart="28.00" departLane="542_4way_305to4way_325_0" departPos="5.10" departSpeed="0.00" departDelay="0.34" arrival="38.00" arrivalLane="542_4way_305to4way_325_0" arrivalPos="85.60" arrivalSpeed="10.40" duration="10.00" routeLength="80.50" waitingTime="0.00" waitingCount="0" stopTime="0.00" timeLoss="2.60" rerouteNo="0" devices="tripinfo_332" vType="DEFAULT_VEHTYPE" speedFactor="0.83" vaporized=""/>
    <tripinfo id="324" depart="27.00" departLane="120_3way_396to4way_376_0" departPos="5.10" departSpeed="0.00" departDelay="0.01" arrival="46.00" arrivalLane="666_4way_376to4way_375_0" arrivalPos="85.60" arrivalSpeed="14.03" duration="19.00" routeLength="175.13" waitingTime="0.00" waitingCount="0" stopTime="0.00" timeLoss="5.47" rerouteNo="0" devices="tripinfo_324" vType="DEFAULT_VEHTYPE" speedFactor="1.05" vaporized=""/>
    <tripinfo id="156" depart="13.00" departLane="81_3way_379to3way_359_0" departPos="5.10" departSpeed="0.00" departDelay="0.00" arrival="47.00" arrivalLane="67_3way_319to3way_299_0" arrivalPos="85.60" arrivalSpeed="11.95" duration="34.00" routeLength="380.50" waitingTime="0.00" waitingCount="0" stopTime="0.00" timeLoss="3.82" rerouteNo="0" devices="tripinfo_156" vType="DEFAULT_VEHTYPE" speedFactor="0.91" vaporized=""/>
    <tripinfo id="445" depart="38.00" departLane="465_4way_267to4way_266_0" departPos="5.10" departSpeed="0.00" departDelay="0.93" arrival="47.00" arrivalLane="465_4way_267to4way_266_0" arrivalPos="85.60" arrivalSpeed="12.86" duration="9.00" routeLength="80.50" waitingTime="0.00" waitingCount="0" stopTime="0.00" timeLoss="3.26" rerouteNo="0" devices="tripinfo_445" vType="DEFAULT_VEHTYPE" speedFactor="1.02" vaporized=""/>
    <tripinfo id="7" depart="1.00" departLane="77_3way_359to3way_339_0" departPos="5.10" departSpeed="0.00" departDelay="0.42" arrival="51.00" arrivalLane="55_3way_259to3way_239_0" arrivalPos="85.60" arrivalSpeed="12.13" duration="50.00" routeLength="580.50" waitingTime="0.00" waitingCount="0" stopTime="0.00" timeLoss="5.37" rerouteNo="0" devices="tripinfo_7" vType="DEFAULT_VEHTYPE" speedFactor="0.95" vaporized=""/>
    <tripinfo id="351" depart="33.00" departLane="73_3way_339to3way_319_0" departPos="5.10" departSpeed="0.00" departDelay="3.76" arrival="52.00" arrivalLane="67_3way_319to3way_299_0" arrivalPos="85.60" arrivalSpeed="11.38" duration="19.00" routeLength="180.50" waitingTime="0.00" waitingCount="0" stopTime="0.00" timeLoss="3.07" rerouteNo="0" devices="tripinfo_351" vType="DEFAULT_VEHTYPE" speedFactor="0.85" vaporized=""/>
    <tripinfo id="149" depart="15.00" departLane="739_4way_78to4way_98_0" departPos="5.10" departSpeed="0.00" departDelay="2.59" arrival="56.00" arrivalLane="267_4way_158to4way_178_0" arrivalPos="85.60" arrivalSpeed="13.14" duration="41.00" routeLength="480.50" waitingTime="0.00" waitingCount="0" stopTime="0.00" timeLoss="4.29" rerouteNo="0" devices="tripinfo_149" vType="DEFAULT_VEHTYPE" speedFactor="0.95" vaporized=""/>
    <tripinfo id="163" depart="14.00" departLane="179_4way_132to4way_112_0" departPos="5.10" departSpeed="0.00" departDelay="0.42" arrival="57.00" arrivalLane="571_4way_52to4way_32_0" arrivalPos="85.60" arrivalSpeed="12.13" duration="43.00" routeLength="480.50" waitingTime="0.00" waitingCount="0" stopTime="0.00" timeLoss="5.43" rerouteNo="0" devices="tripinfo_163" vType="DEFAULT_VEHTYPE" speedFactor="0.94" vaporized=""/>
    <tripinfo id="318" depart="27.00" departLane="109_3way_392to3way_391_0" departPos="5.10" departSpeed="0.00" departDelay="0.51" arrival="58.00" arrivalLane="101_3way_389to3way_388_0" arrivalPos="85.60" arrivalSpeed="14.07" duration="31.00" routeLength="380.50" waitingTime="0.00" waitingCount="0" stopTime="0.00" timeLoss="3.97" rerouteNo="0" devices="tripinfo_318" vType="DEFAULT_VEHTYPE" speedFactor="1.01" vaporized=""/>
    <tripinfo id="531" depart="45.00" departLane="124_3way_5to3way_4_0" departPos="5.10" departSpeed="0.00" departDelay="0.77" arrival="61.00" arrivalLane="69_3way_4to3way_3_0" arrivalPos="85.60" arrivalSpeed="15.14" duration="16.00" routeLength="180.50" waitingTime="0.00" waitingCount="0" stopTime="0.00" timeLoss="3.73" rerouteNo="0" devices="tripinfo_531" vType="DEFAULT_VEHTYPE" speedFactor="1.11" vaporized=""/>
    <tripinfo id="610" depart="51.00" departLane="413_4way_238to4way_258_0" departPos="5.10" departSpeed="0.00" departDelay="0.19" arrival="61.00" arrivalLane="413_4way_238to4way_258_0" arrivalPos="85.60" arrivalSpeed="11.98" duration="10.00" routeLength="80.50" waitingTime="0.00" waitingCount="0" stopTime="0.00" timeLoss="3.46" rerouteNo="0" devices="tripinfo_610" vType="DEFAULT_VEHTYPE" speedFactor="0.93" vaporized=""/>
    <tripinfo id="126" depart="11.00" departLane="328_4way_193to4way_213_0" departPos="5.10" departSpeed="0.00" departDelay="0.50" arrival="65.00" arrivalLane="560_4way_313to4way_333_0" arrivalPos="85.60" arrivalSpeed="13.24" duration="54.00" routeLength="680.50" waitingTime="0.00" waitingCount="0" stopTime="0.00" timeLoss="4.89" rerouteNo="0" devices="tripinfo_126" vType="DEFAULT_VEHTYPE" speedFactor="1.01" vaporized=""/>
    <tripinfo id="210" depart="18.00" departLane="530_4way_318to4way_298_0" departPos="5.10" departSpeed="0.00" departDelay="0.51" arrival="65.00" arrivalLane="302_4way_198to4way_178_0" arrivalPos="85.60" arrivalSpeed="16.36" duration="47.00" routeLength="680.50" waitingTime="0.00" waitingCount="0" stopTime="0.00" timeLoss="5.25" rerouteNo="0" devices="tripinfo_210" vType="DEFAULT_VEHTYPE" speedFactor="1.20" vaporized=""/>
    <tripinfo id="37" depart="4.00" departLane="27_3way_16to3way_15_0" departPos="5.10" departSpeed="0.00" departDelay="0.92" arrival="68.00" arrivalLane="183_4way_93to4way_113_0" arrivalPos="85.60" arrivalSpeed="12.55" duration="64.00" routeLength="775.13" waitingTime="0.00" waitingCount="0" stopTime="0.00" timeLoss="7.01" rerouteNo="0" devices="tripinfo_37" vType="DEFAULT_VEHTYPE" speedFactor="0.99" vaporized=""/>
    <tripinfo id="303" depart="26.00" departLane="148_4way_102to4way_103_0" departPos="5.10" departSpeed="0.00" departDelay="0.76" arrival="70.00" arrivalLane="148_4way_102to4way_103_0" arrivalPos="85.60" arrivalSpeed="5.87" duration="44.00" routeLength="80.50" waitingTime="29.00" waitingCount="1" stopTime="0.00" timeLoss="38.14" rerouteNo="0" devices="tripinfo_303" vType="DEFAULT_VEHTYPE" speedFactor="1.02" vaporized=""/>
    <tripinfo id="93" depart="9.00" departLane="628_4way_369to4way_349_0" departPos="5.10" departSpeed="0.00" departDelay="1.25" arrival="73.00" arrivalLane="547_4way_309to4way_308_0" arrivalPos="85.60" arrivalSpeed="6.91" duration="64.00" routeLength="375.13" waitingTime="21.00" waitingCount="1" stopTime="0.00" timeLoss="36.28" rerouteNo="0" devices="tripinfo_93" vType="DEFAULT_VEHTYPE" speedFactor="1.00" vaporized=""/>
    <tripinfo id="26" depart="3.00" departLane="115_3way_394to3way_395_0" departPos="5.10" departSpeed="0.00" departDelay="0.83" arrival="74.00" arrivalLane="530_4way_318to4way_298_0" arrivalPos="85.60" arrivalSpeed="13.24" duration="71.00" routeLength="875.13" waitingTime="0.00" waitingCount="0" stopTime="0.00" timeLoss="9.38" rerouteNo="0" devices="tripinfo_26" vType="DEFAULT_VEHTYPE" speedFactor="1.03" vaporized=""/>
    <tripinfo id="72" depart="6.00" departLane="326_4way_192to4way_212_0" departPos="5.10" departSpeed="0.00" departDelay="0.00" arrival="76.00" arrivalLane="520_4way_293to4way_294_0" arrivalPos="85.60" arrivalSpeed="15.97" duration="70.00" routeLength="675.13" waitingTime="14.00" waitingCount="1" stopTime="0.00" timeLoss="26.96" rerouteNo="0" devices="tripinfo_72" vType="DEFAULT_VEHTYPE" speedFactor="1.15" vaporized=""/>
    <tripinfo id="341" depart="29.00" departLane="730_4way_93to4way_73_0" departPos="5.10" departSpeed="0.00" departDelay="0.59" arrival="76.00" arrivalLane="15_3way_13to3way_12_0" arrivalPos="85.60" arrivalSpeed="14.53" duration="47.00" routeLength="475.13" waitingTime="6.00" waitingCount="1" stopTime="0.00" timeLoss="15.61" rerouteNo="0" devices="tripinfo_341" vType="DEFAULT_VEHTYPE" speedFactor="1.12" vaporized=""/>
    <tripinfo id="358" depart="30.00" departLane="392_4way_248to4way_228_0" departPos="5.10" departSpeed="0.00" departDelay="0.18" arrival="76.00" arrivalLane="348_4way_207to4way_206_0" arrivalPos="85.60" arrivalSpeed="14.90" duration="46.00" routeLength="375.13" waitingTime="8.00" waitingCount="1" stopTime="0.00" timeLoss="22.04" rerouteNo="0" devices="tripinfo_358" vType="DEFAULT_VEHTYPE" speedFactor="1.16" vaporized=""/>
    <tripinfo id="9" depart="1.00" departLane="733_4way_76to4way_75_0" departPos="5.10" departSpeed="0.00" departDelay="0.25" arrival="77.00" arrivalLane="731_4way_75to4way_74_0" arrivalPos="85.60" arrivalSpeed="12.22" duration="76.00" routeLength="180.50" waitingTime="54.00" waitingCount="1" stopTime="0.00" timeLoss="61.53" rerouteNo="0" devices="tripinfo_9" vType="DEFAULT_VEHTYPE" speedFactor="0.91" vaporized=""/>
    <tripinfo id="262" depart="22.00" departLane="714_4way_85to4way_65_0" departPos="5.10" departSpeed="0.00" departDelay="0.17" arrival="77.00" arrivalLane="124_3way_5to3way_4_0" arrivalPos="85.60" arrivalSpeed="12.66" duration="55.00" routeLength="475.13" waitingTime="7.00" waitingCount="1" stopTime="0.00" timeLoss="17.39" rerouteNo="0" devices="tripinfo_262" vType="DEFAULT_VEHTYPE" speedFactor="0.93" vaporized=""/>
    <tripinfo id="416" depart="35.00" departLane="551_4way_31to4way_32_0" departPos="5.10" departSpeed="0.00" departDelay="0.35" arrival="77.00" arrivalLane="570_4way_32to4way_33_0" arrivalPos="85.60" arrivalSpeed="13.88" duration="42.00" routeLength="180.50" waitingTime="20.00" waitingCount="1" stopTime="0.00" timeLoss="28.69" rerouteNo="0" devices="tripinfo_416" vType="DEFAULT_VEHTYPE" speedFactor="1.04" vaporized=""/>
    <tripinfo id="203" depart="17.00" departLane="708_4way_62to4way_82_0" departPos="5.10" departSpeed="0.00" departDelay="0.09" arrival="78.00" arrivalLane="742_4way_83to4way_84_0" arrivalPos="85.60" arrivalSpeed="12.53" duration="61.00" routeLength="275.13" waitingTime="28.00" waitingCount="1" stopTime="0.00" timeLoss="38.22" rerouteNo="0" devices="tripinfo_203" vType="DEFAULT_VEHTYPE" speedFactor="0.95" vaporized=""/>
    <tripinfo id="536" depart="46.00" departLane="671_4way_41to4way_61_0" departPos="5.10" departSpeed="0.00" departDelay="1.35" arrival="79.00" arrivalLane="707_4way_62to4way_63_0" arrivalPos="85.60" arrivalSpeed="13.65" duration="33.00" routeLength="275.13" waitingTime="2.00" waitingCount="1" stopTime="0.00" timeLoss="13.49" rerouteNo="0" devices="tripinfo_536" vType="DEFAULT_VEHTYPE" speedFactor="1.06" vaporized=""/>
    <tripinfo id="14" depart="2.00" departLane="716_4way_66to4way_86_0" departPos="5.10" departSpeed="0.00" departDelay="0.83" arrival="82.00" arrivalLane="315_4way_187to4way_188_0" arrivalPos="85.60" arrivalSpeed="13.05" duration="80.00" routeLength="775.13" waitingTime="6.00" waitingCount="1" stopTime="0.00" timeLoss="19.75" rerouteNo="0" devices="tripinfo_14" vType="DEFAULT_VEHTYPE" speedFactor="0.95" vaporized=""/>
    <tripinfo id="164" depart="14.00" departLane="207_4way_145to4way_125_0" departPos="5.10" departSpeed="0.00" departDelay="0.34" arrival="82.00" arrivalLane="151_4way_104to4way_103_0" arrivalPos="85.60" arrivalSpeed="8.34" duration="68.00" routeLength="375.13" waitingTime="27.00" waitingCount="1" stopTime="0.00" timeLoss="42.70" rerouteNo="0" devices="tripinfo_164" vType="DEFAULT_VEHTYPE" speedFactor="1.11" vaporized=""/>
    <tripinfo id="175" depart="15.00" departLane="23_3way_15to3way_14_0" departPos="5.10" departSpeed="0.00" departDelay="0.42" arrival="83.00" arrivalLane="726_4way_71to4way_91_0" arrivalPos="85.60" arrivalSpeed="13.29" duration="68.00" routeLength="775.13" waitingTime="0.00" waitingCount="0" stopTime="0.00" timeLoss="10.53" rerouteNo="0" devices="tripinfo_175" vType="DEFAULT_VEHTYPE" speedFactor="0.99" vaporized=""/>
    <tripinfo id="177" depart="15.00" departLane="634_4way_371to4way_351_0" departPos="5.10" departSpeed="0.00" departDelay="0.26" arrival="84.00" arrivalLane="547_4way_309to4way_308_0" arrivalPos="85.60" arrivalSpeed="13.47" duration="69.00" routeLength="575.13" waitingTime="15.00" waitingCount="1" stopTime="0.00" timeLoss="27.98" rerouteNo="0" devices="tripinfo_177" vType="DEFAULT_VEHTYPE" speedFactor="1.03" vaporized=""/>
    <tripinfo id="285" depart="24.00" departLane="28_3way_15to4way_35_0" departPos="5.10" departSpeed="0.00" departDelay="0.26" arrival="84.00" arrivalLane="190_4way_116to4way_117_0" arrivalPos="85.60" arrivalSpeed="12.90" duration="60.00" routeLength="675.13" waitingTime="0.00" waitingCount="0" stopTime="0.00" timeLoss="6.76" rerouteNo="0" devices="tripinfo_285" vType="DEFAULT_VEHTYPE" speedFactor="0.93" vaporized=""/>
    <tripinfo id="533" depart="45.00" departLane="14_4way_118to3way_119_0" departPos="5.10" departSpeed="0.00" departDelay="0.60" arrival="84.00" arrivalLane="138_3way_99to3way_79_0" arrivalPos="85.60" arrivalSpeed="15.09" duration="39.00" routeLength="275.13" waitingTime="9.00" waitingCount="1" stopTime="0.00" timeLoss="19.53" rerouteNo="0" devices="tripinfo_533" vType="DEFAULT_VEHTYPE" speedFactor="1.09" vaporized=""/>
    <tripinfo id="115" depart="10.00" departLane="455_4way_261to4way_262_0" departPos="5.10" departSpeed="0.00" departDelay="0.42" arrival="85.00" arrivalLane="380_4way_242to4way_222_0" arrivalPos="85.60" arrivalSpeed="12.10" duration="75.00" routeLength="275.13" waitingTime="45.00" waitingCount="1" stopTime="0.00" timeLoss="52.41" rerouteNo="0" devices="tripinfo_115" vType="DEFAULT_VEHTYPE" speedFactor="0.92" vaporized=""/>
    <tripinfo id="201" depart="17.00" departLane="568_4way_317to4way_337_0" departPos="5.10" departSpeed="0.00" departDelay="0.26" arrival="85.00" arrivalLane="117_3way_396to3way_395_0" arrivalPos="85.60" arrivalSpeed="12.17" duration="68.00" routeLength="580.29" waitingTime="13.00" waitingCount="1" stopTime="0.00" timeLoss="22.51" rerouteNo="0" devices="tripinfo_201" vType="DEFAULT_VEHTYPE" speedFactor="0.93" vaporized=""/>
    <tripinfo id="675" depart="58.00" departLane="421_4way_263to4way_243_0" departPos="5.10" departSpeed="0.00" departDelay="1.77" arrival="85.00" arrivalLane="343_4way_223to4way_203_0" arrivalPos="85.60" arrivalSpeed="11.56" duration="27.00" routeLength="280.50" waitingTime="0.00" waitingCount="0" stopTime="0.00" timeLoss="4.28" rerouteNo="0" devices="tripinfo_675" vType="DEFAULT_VEHTYPE" speedFactor="0.91" vaporized=""/>
    <tripinfo id="118" depart="10.00" departLane="745_4way_87to4way_86_0" departPos="5.10" departSpeed="0.00" departDelay="0.17" arrival="86.00" arrivalLane="159_4way_85to4way_105_0" arrivalPos="85.60" arrivalSpeed="13.36" duration="76.00" routeLength="275.13" waitingTime="43.00" waitingCount="1" stopTime="0.00" timeLoss="56.59" rerouteNo="0" devices="tripinfo_118" vType="DEFAULT_VEHTYPE" speedFactor="1.05" vaporized=""/>
    <tripinfo id="741" depart="62.00" departLane="40_4way_38to3way_18_0" departPos="5.10" departSpeed="0.00" departDelay="0.27" arrival="86.00" arrivalLane="31_3way_17to3way_16_0" arrivalPos="85.60" arrivalSpeed="15.29" duration="24.00" routeLength="275.13" waitingTime="0.00" waitingCount="0" stopTime="0.00" timeLoss="5.68" rerouteNo="0" devices="tripinfo_741" vType="DEFAULT_VEHTYPE" speedFactor="1.12" vaporized=""/>
    <tripinfo id="906" depart="76.00" departLane="669_4way_58to4way_38_0" departPos="5.10" departSpeed="0.00" departDelay="0.53" arrival="86.00" arrivalLane="669_4way_58to4way_38_0" arrivalPos="85.60" arrivalSpeed="12.32" duration="10.00" routeLength="80.50" waitingTime="0.00" waitingCount="0" stopTime="0.00" timeLoss="3.17" rerouteNo="0" devices="tripinfo_906" vType="DEFAULT_VEHTYPE" speedFactor="0.95" vaporized=""/>
    <tripinfo id="430" depart="36.00" departLane="231_4way_137to4way_157_0" departPos="5.10" departSpeed="0.00" departDelay="0.18" arrival="88.00" arrivalLane="412_4way_237to4way_257_0" arrivalPos="85.60" arrivalSpeed="11.61" duration="52.00" routeLength="580.50" waitingTime="0.00" waitingCount="0" stopTime="0.00" timeLoss="5.00" rerouteNo="0" devices="tripinfo_430" vType="DEFAULT_VEHTYPE" speedFactor="0.90" vaporized=""/>
    <tripinfo id="585" depart="49.00" departLane="344_4way_205to4way_204_0" departPos="5.10" departSpeed="0.00" departDelay="0.27" arrival="88.00" arrivalLane="343_4way_203to4way_223_0" arrivalPos="85.60" arrivalSpeed="12.04" duration="39.00" routeLength="275.13" waitingTime="5.00" waitingCount="1" stopTime="0.00" timeLoss="14.80" rerouteNo="0" devices="tripinfo_585" vType="DEFAULT_VEHTYPE" speedFactor="0.88" vaporized=""/>
    <tripinfo id="257" depart="22.00" departLane="438_4way_252to4way_251_0" departPos="5.10" departSpeed="0.00" departDelay="0.59" arrival="89.00" arrivalLane="437_4way_250to4way_270_0" arrivalPos="85.60" arrivalSpeed="10.29" duration="67.00" routeLength="275.13" waitingTime="33.00" waitingCount="1" stopTime="0.00" timeLoss="42.37" rerouteNo="0" devices="tripinfo_257" vType="DEFAULT_VEHTYPE" speedFactor="0.83" vaporized=""/>
    <tripinfo id="424" depart="36.00" departLane="213_4way_148to4way_128_0" departPos="5.10" departSpeed="0.00" departDelay="0.68" arrival="89.00" arrivalLane="744_4way_86to4way_85_0" arrivalPos="85.60" arrivalSpeed="13.40" duration="53.00" routeLength="575.13" waitingTime="0.00" waitingCount="0" stopTime="0.00" timeLoss="9.56" rerouteNo="0" devices="tripinfo_424" vType="DEFAULT_VEHTYPE" speedFactor="0.98" vaporized=""/>
    <tripinfo id="233" depart="20.00" departLane="460_4way_263to4way_283_0" departPos="5.10" departSpeed="0.00" departDelay="0.59" arrival="91.00" arrivalLane="580_4way_325to4way_326_0" arrivalPos="85.60" arrivalSpeed="10.83" duration="71.00" routeLength="575.13" waitingTime="8.00" waitingCount="1" stopTime="0.00" timeLoss="20.16" rerouteNo="0" devices="tripinfo_233" vType="DEFAULT_VEHTYPE" speedFactor="0.83" vaporized=""/>
    <tripinfo id="345" depart="29.00" departLane="16_3way_12to4way_32_0" departPos="5.10" departSpeed="0.00" departDelay="0.26" arrival="91.00" arrivalLane="698_4way_55to4way_56_0" arrivalPos="85.60" arrivalSpeed="13.64" duration="62.00" routeLength="575.13" waitingTime="8.00" waitingCount="1" stopTime="0.00" timeLoss="21.62" rerouteNo="0" devices="tripinfo_345" vType="DEFAULT_VEHTYPE" speedFactor="1.05" vaporized=""/>
    <tripinfo id="684" depart="57.00" departLane="360_4way_211to4way_212_0" departPos="5.10" departSpeed="0.00" departDelay="0.02" arrival="91.00" arrivalLane="330_4way_214to4way_194_0" arrivalPos="85.60" arrivalSpeed="13.19" duration="34.00" routeLength="375.13" waitingTime="0.00" waitingCount="0" stopTime="0.00" timeLoss="6.70" rerouteNo="0" devices="tripinfo_684" vType="DEFAULT_VEHTYPE" speedFactor="1.01" vaporized=""/>
    <tripinfo id="418" depart="35.00" departLane="131_3way_59to4way_58_0" departPos="5.10" departSpeed="0.00" departDelay="0.18" arrival="93.00" arrivalLane="703_4way_57to4way_77_0" arrivalPos="85.60" arrivalSpeed="10.09" duration="58.00" routeLength="275.13" waitingTime="20.00" waitingCount="1" stopTime="0.00" timeLoss="31.46" rerouteNo="0" devices="tripinfo_418" vType="DEFAULT_VEHTYPE" speedFactor="0.79" vaporized=""/>
    <tripinfo id="637" depart="54.00" departLane="327_4way_193to4way_194_0" departPos="5.10" departSpeed="0.00" departDelay="0.94" arrival="93.00" arrivalLane="225_4way_154to4way_134_0" arrivalPos="85.60" arrivalSpeed="12.72" duration="39.00" routeLength="375.13" waitingTime="1.00" waitingCount="1" stopTime="0.00" timeLoss="9.53" rerouteNo="0" devices="tripinfo_637" vType="DEFAULT_VEHTYPE" speedFactor="0.94" vaporized=""/>
    <tripinfo id="317" depart="27.00" departLane="669_4way_58to4way_38_0" departPos="5.10" departSpeed="0.00" departDelay="0.59" arrival="94.00" arrivalLane="609_4way_35to4way_34_0" arrivalPos="85.60" arrivalSpeed="14.32" duration="67.00" routeLength="475.13" waitingTime="21.00" waitingCount="1" stopTime="0.00" timeLoss="35.71" rerouteNo="0" devices="tripinfo_317" vType="DEFAULT_VEHTYPE" speedFactor="1.11" vaporized=""/>
    <tripinfo id="507" depart="43.00" departLane="453_4way_26to4way_27_0" departPos="5.10" departSpeed="0.00" departDelay="0.77" arrival="94.00" arrivalLane="143_4way_29to3way_9_0" arrivalPos="85.60" arrivalSpeed="13.17" duration="51.00" routeLength="375.13" waitingTime="11.00" waitingCount="1" stopTime="0.00" timeLoss="22.21" rerouteNo="0" devices="tripinfo_507" vType="DEFAULT_VEHTYPE" speedFactor="0.97" vaporized=""/>
    <tripinfo id="579" depart="49.00" departLane="108_4way_370to3way_390_0" departPos="5.10" departSpeed="0.00" departDelay="0.77" arrival="94.00" arrivalLane="111_3way_392to3way_393_0" arrivalPos="85.60" arrivalSpeed="12.60" duration="45.00" routeLength="375.13" waitingTime="4.00" waitingCount="1" stopTime="0.00" timeLoss="14.41" rerouteNo="0" devices="tripinfo_579" vType="DEFAULT_VEHTYPE" speedFactor="0.92" vaporized=""/>
    <tripinfo id="973" depart="84.00" departLane="69_3way_4to3way_3_0" departPos="5.10" departSpeed="0.00" departDelay="2.95" arrival="94.00" arrivalLane="69_3way_4to3way_3_0" arrivalPos="85.60" arrivalSpeed="11.98" duration="10.00" routeLength="80.50" waitingTime="0.00" waitingCount="0" stopTime="0.00" timeLoss="3.04" rerouteNo="0" devices="tripinfo_973" vType="DEFAULT_VEHTYPE" speedFactor="0.93" vaporized=""/>
    <tripinfo id="278" depart="24.00" departLane="434_4way_26to4way_25_0" departPos="5.10" departSpeed="0.00" departDelay="0.84" arrival="95.00" arrivalLane="375_4way_23to4way_22_0" arrivalPos="85.60" arrivalSpeed="12.68" duration="71.00" routeLength="380.50" waitingTime="29.00" waitingCount="1" stopTime="0.00" timeLoss="40.17" rerouteNo="0" devices="tripinfo_278" vType="DEFAULT_VEHTYPE" speedFactor="0.91" vaporized=""/>
    <tripinfo id="891" depart="75.00" departLane="51_3way_239to3way_219_0" departPos="5.10" departSpeed="0.00" departDelay="0.78" arrival="95.00" arrivalLane="52_3way_219to4way_218_0" arrivalPos="85.60" arrivalSpeed="12.42" duration="20.00" routeLength="175.13" waitingTime="0.00" waitingCount="0" stopTime="0.00" timeLoss="4.65" rerouteNo="0" devices="tripinfo_891" vType="DEFAULT_VEHTYPE" speedFactor="0.90" vaporized=""/>
    <tripinfo id="357" depart="30.00" departLane="34_4way_161to3way_160_0" departPos="5.10" departSpeed="0.00" departDelay="0.26" arrival="98.00" arrivalLane="53_3way_220to3way_240_0" arrivalPos="85.60" arrivalSpeed="13.56" duration="68.00" routeLength="475.13" waitingTime="25.00" waitingCount="1" stopTime="0.00" timeLoss="34.28" rerouteNo="0" devices="tripinfo_357" vType="DEFAULT_VEHTYPE" speedFactor="1.04" vaporized=""/>
    <tripinfo id="887" depart="74.00" departLane="8_3way_100to3way_80_0" departPos="5.10" departSpeed="0.00" departDelay="0.11" arrival="99.00" arrivalLane="126_3way_60to3way_40_0" arrivalPos="85.60" arrivalSpeed="12.62" duration="25.00" routeLength="280.50" waitingTime="0.00" waitingCount="0" stopTime="0.00" timeLoss="3.84" rerouteNo="0" devices="tripinfo_887" vType="DEFAULT_VEHTYPE" speedFactor="0.96" vaporized=""/>
    <tripinfo id="197" depart="17.00" departLane="669_4way_58to4way_38_0" departPos="5.10" departSpeed="0.00" departDelay="0.59" arrival="100.00" arrivalLane="23_3way_15to3way_14_0" arrivalPos="85.60" arrivalSpeed="12.76" duration="83.00" routeLength="575.13" waitingTime="29.00" waitingCount="1" stopTime="0.00" timeLoss="40.70" rerouteNo="0" devices="tripinfo_197" vType="DEFAULT_VEHTYPE" speedFactor="1.01" vaporized=""/>
    <tripinfo id="325" depart="28.00" departLane="547_4way_309to4way_308_0" departPos="5.10" departSpeed="0.00" departDelay="0.93" arrival="101.00" arrivalLane="624_4way_347to4way_367_0" arrivalPos="85.60" arrivalSpeed="13.73" duration="73.00" routeLength="475.13" waitingTime="28.00" waitingCount="1" stopTime="0.00" timeLoss="38.50" rerouteNo="0" devices="tripinfo_325" vType="DEFAULT_VEHTYPE" speedFactor="1.01" vaporized=""/>
    <tripinfo id="719" depart="61.00" departLane="291_4way_172to4way_192_0" departPos="5.10" departSpeed="0.00" departDelay="1.11" arrival="103.00" arrivalLane="331_4way_195to4way_196_0" arrivalPos="85.60" arrivalSpeed="12.95" duration="42.00" routeLength="475.13" waitingTime="0.00" waitingCount="0" stopTime="0.00" timeLoss="7.45" rerouteNo="0" devices="tripinfo_719" vType="DEFAULT_VEHTYPE" speedFactor="1.02" vaporized=""/>
    <tripinfo id="496" depart="42.00" departLane="685_4way_68to4way_48_0" departPos="5.10" departSpeed="0.00" departDelay="0.68" arrival="104.00" arrivalLane="375_4way_23to4way_22_0" arrivalPos="85.60" arrivalSpeed="14.46" duration="62.00" routeLength="775.13" waitingTime="0.00" waitingCount="0" stopTime="0.00" timeLoss="9.05" rerouteNo="0" devices="tripinfo_496" vType="DEFAULT_VEHTYPE" speedFactor="1.07" vaporized=""/>
    <tripinfo id="850" depart="71.00" departLane="599_4way_353to4way_333_0" departPos="5.10" departSpeed="0.00" departDelay="0.19" arrival="107.00" arrivalLane="563_4way_315to4way_316_0" arrivalPos="85.60" arrivalSpeed="16.53" duration="36.00" routeLength="480.30" waitingTime="0.00" waitingCount="0" stopTime="0.00" timeLoss="6.83" rerouteNo="0" devices="tripinfo_850" vType="DEFAULT_VEHTYPE" speedFactor="1.23" vaporized=""/>
    <tripinfo id="976" depart="82.00" departLane="547_4way_309to4way_308_0" departPos="5.10" departSpeed="0.00" departDelay="0.70" arrival="107.00" arrivalLane="546_4way_307to4way_327_0" arrivalPos="85.60" arrivalSpeed="15.20" duration="25.00" routeLength="275.13" waitingTime="0.00" waitingCount="0" stopTime="0.00" timeLoss="6.36" rerouteNo="0" devices="tripinfo_976" vType="DEFAULT_VEHTYPE" speedFactor="1.13" vaporized=""/>
    <tripinfo id="1195" depart="100.00" departLane="601_4way_354to4way_334_0" departPos="5.10" departSpeed="0.00" departDelay="0.46" arrival="109.00" arrivalLane="601_4way_354to4way_334_0" arrivalPos="85.60" arrivalSpeed="12.78" duration="9.00" routeLength="80.50" waitingTime="0.00" waitingCount="0" stopTime="0.00" timeLoss="2.65" rerouteNo="0" devices="tripinfo_1195" vType="DEFAULT_VEHTYPE" speedFactor="0.93" vaporized=""/>