<?xml version="1.0" encoding="UTF-8"?>

<!-- generated on 2023-08-01 23:39:24 by Eclipse SUMO sumo Version 1.12.0
<configuration xmlns:xsi="http://www.w3.org/2001/XMLSchema-instance" xsi:noNamespaceSchemaLocation="http://sumo.dlr.de/xsd/sumoConfiguration.xsd">

    <input>
        <net-file value="../../data_generation/sq.net.xml"/>
        <route-files value="../../data_generation/sq.rou.xml"/>
    </input>

    <output>
        <tripinfo-output value="tripinfo.xml"/>
        <statistic-output value="statistic.xml"/>
    </output>

    <time>
        <begin value="0"/>
        <end value="3600"/>
    </time>

    <processing>
        <time-to-teleport value="-1"/>
    </processing>

    <traci_server>
        <remote-port value="60903"/>
    </traci_server>

    <random_number>
        <seed value="1395"/>
    </random_number>

    <gui_only>
        <gui-settings-file value="../../data_generation/view_HY_0402.xml"/>
    </gui_only>

</configuration>
-->

<tripinfos xmlns:xsi="http://www.w3.org/2001/XMLSchema-instance" xsi:noNamespaceSchemaLocation="http://sumo.dlr.de/xsd/tripinfo_file.xsd">
    <tripinfo id="1" depart="1.00" departLane="373_4way_66to4way_67_0" departPos="5.10" departSpeed="0.00" departDelay="0.89" arrival="10.00" arrivalLane="373_4way_66to4way_67_0" arrivalPos="85.60" arrivalSpeed="13.69" duration="9.00" routeLength="80.50" waitingTime="0.00" waitingCount="0" stopTime="0.00" timeLoss="3.38" rerouteNo="0" devices="tripinfo_1" vType="DEFAULT_VEHTYPE" speedFactor="1.04" vaporized=""/>
    <tripinfo id="18" depart="2.00" departLane="137_4way_112to4way_97_0" departPos="5.10" departSpeed="0.00" departDelay="0.00" arrival="12.00" arrivalLane="137_4way_112to4way_97_0" arrivalPos="85.60" arrivalSpeed="12.63" duration="10.00" routeLength="80.50" waitingTime="0.00" waitingCount="0" stopTime="0.00" timeLoss="3.36" rerouteNo="0" devices="tripinfo_18" vType="DEFAULT_VEHTYPE" speedFactor="0.96" vaporized=""/>
    <tripinfo id="22" depart="3.00" departLane="403_4way_98to4way_83_0" departPos="5.10" departSpeed="0.00" departDelay="0.56" arrival="12.00" arrivalLane="403_4way_98to4way_83_0" arrivalPos="85.60" arrivalSpeed="13.26" duration="9.00" routeLength="80.50" waitingTime="0.00" waitingCount="0" stopTime="0.00" timeLoss="2.91" rerouteNo="0" devices="tripinfo_22" vType="DEFAULT_VEHTYPE" speedFactor="1.00" vaporized=""/>
    <tripinfo id="47" depart="6.00" departLane="40_3way_180to4way_181_0" departPos="5.10" departSpeed="0.00" departDelay="0.78" arrival="16.00" arrivalLane="40_3way_180to4way_181_0" arrivalPos="85.60" arrivalSpeed="11.23" duration="10.00" routeLength="80.50" waitingTime="0.00" waitingCount="0" stopTime="0.00" timeLoss="3.30" rerouteNo="0" devices="tripinfo_47" vType="DEFAULT_VEHTYPE" speedFactor="0.90" vaporized=""/>
    <tripinfo id="83" depart="10.00" departLane="256_4way_33to4way_18_0" departPos="5.10" departSpeed="0.00" departDelay="0.78" arrival="28.00" arrivalLane="77_4way_18to3way_3_0" arrivalPos="85.60" arrivalSpeed="12.58" duration="18.00" routeLength="180.50" waitingTime="0.00" waitingCount="0" stopTime="0.00" timeLoss="3.20" rerouteNo="0" devices="tripinfo_83" vType="DEFAULT_VEHTYPE" speedFactor="0.93" vaporized=""/>
    <tripinfo id="167" depart="20.00" departLane="357_4way_55to4way_70_0" departPos="5.10" departSpeed="0.00" departDelay="1.45" arrival="30.00" arrivalLane="357_4way_55to4way_70_0" arrivalPos="85.60" arrivalSpeed="11.29" duration="10.00" routeLength="80.50" waitingTime="0.00" waitingCount="0" stopTime="0.00" timeLoss="2.48" rerouteNo="0" devices="tripinfo_167" vType="DEFAULT_VEHTYPE" speedFactor="0.85" vaporized=""/>
    <tripinfo id="206" depart="23.00" departLane="93_4way_61to3way_60_0" departPos="5.10" departSpeed="0.00" departDelay="0.11" arrival="33.00" arrivalLane="93_4way_61to3way_60_0" arrivalPos="85.60" arrivalSpeed="12.01" duration="10.00" routeLength="80.50" waitingTime="0.00" waitingCount="0" stopTime="0.00" timeLoss="3.52" rerouteNo="0" devices="tripinfo_206" vType="DEFAULT_VEHTYPE" speedFactor="0.92" vaporized=""/>
    <tripinfo id="210" depart="24.00" departLane="54_3way_213to4way_198_0" departPos="5.10" departSpeed="0.00" departDelay="0.67" arrival="33.00" arrivalLane="54_3way_213to4way_198_0" arrivalPos="85.60" arrivalSpeed="16.11" duration="9.00" routeLength="80.50" waitingTime="0.00" waitingCount="0" stopTime="0.00" timeLoss="3.90" rerouteNo="0" devices="tripinfo_210" vType="DEFAULT_VEHTYPE" speedFactor="1.20" vaporized=""/>
    <tripinfo id="7" depart="1.00" departLane="7_3way_119to3way_104_0" departPos="5.10" departSpeed="0.00" departDelay="0.22" arrival="35.00" arrivalLane="88_3way_74to3way_59_0" arrivalPos="85.60" arrivalSpeed="12.35" duration="34.00" routeLength="380.50" waitingTime="0.00" waitingCount="0" stopTime="0.00" timeLoss="4.39" rerouteNo="0" devices="tripinfo_7" vType="DEFAULT_VEHTYPE" speedFactor="0.95" vaporized=""/>
    <tripinfo id="156" depart="18.00" departLane="7_3way_119to3way_104_0" departPos="5.10" departSpeed="0.00" departDelay="0.67" arrival="36.00" arrivalLane="8_3way_104to3way_89_0" arrivalPos="85.60" arrivalSpeed="12.08" duration="18.00" routeLength="180.50" waitingTime="0.00" waitingCount="0" stopTime="0.00" timeLoss="3.64" rerouteNo="0" devices="tripinfo_156" vType="DEFAULT_VEHTYPE" speedFactor="0.91" vaporized=""/>
    <tripinfo id="163" depart="19.00" departLane="216_4way_173to4way_158_0" departPos="5.10" departSpeed="0.00" departDelay="0.89" arrival="37.00" arrivalLane="191_4way_158to4way_143_0" arrivalPos="85.60" arrivalSpeed="12.47" duration="18.00" routeLength="180.50" waitingTime="0.00" waitingCount="0" stopTime="0.00" timeLoss="3.97" rerouteNo="0" devices="tripinfo_163" vType="DEFAULT_VEHTYPE" speedFactor="0.94" vaporized=""/>
    <tripinfo id="149" depart="17.00" departLane="116_4way_88to4way_103_0" departPos="5.10" departSpeed="0.00" departDelay="0.45" arrival="43.00" arrivalLane="150_4way_118to4way_133_0" arrivalPos="85.60" arrivalSpeed="12.49" duration="26.00" routeLength="280.50" waitingTime="0.00" waitingCount="0" stopTime="0.00" timeLoss="4.32" rerouteNo="0" devices="tripinfo_149" vType="DEFAULT_VEHTYPE" speedFactor="0.95" vaporized=""/>
    <tripinfo id="270" depart="30.00" departLane="301_4way_22to4way_37_0" departPos="5.10" departSpeed="0.00" departDelay="0.00" arrival="46.00" arrivalLane="326_4way_37to4way_52_0" arrivalPos="85.60" arrivalSpeed="15.06" duration="16.00" routeLength="180.50" waitingTime="0.00" waitingCount="0" stopTime="0.00" timeLoss="3.69" rerouteNo="0" devices="tripinfo_270" vType="DEFAULT_VEHTYPE" speedFactor="1.09" vaporized=""/>
    <tripinfo id="331" depart="37.00" departLane="233_4way_168to4way_183_0" departPos="5.10" departSpeed="0.00" departDelay="0.23" arrival="47.00" arrivalLane="233_4way_168to4way_183_0" arrivalPos="85.60" arrivalSpeed="12.23" duration="10.00" routeLength="80.50" waitingTime="0.00" waitingCount="0" stopTime="0.00" timeLoss="3.21" rerouteNo="0" devices="tripinfo_331" vType="DEFAULT_VEHTYPE" speedFactor="0.94" vaporized=""/>
    <tripinfo id="350" depart="39.00" departLane="8_3way_104to3way_89_0" departPos="5.10" departSpeed="0.00" departDelay="0.11" arrival="48.00" arrivalLane="8_3way_104to3way_89_0" arrivalPos="85.60" arrivalSpeed="14.37" duration="9.00" routeLength="80.50" waitingTime="0.00" waitingCount="0" stopTime="0.00" timeLoss="2.91" rerouteNo="0" devices="tripinfo_350" vType="DEFAULT_VEHTYPE" speedFactor="1.07" vaporized=""/>
    <tripinfo id="20" depart="3.00" departLane="395_4way_94to4way_79_0" departPos="5.10" departSpeed="0.00" departDelay="0.78" arrival="49.00" arrivalLane="317_4way_34to4way_33_0" arrivalPos="85.60" arrivalSpeed="12.29" duration="46.00" routeLength="475.13" waitingTime="0.00" waitingCount="0" stopTime="0.00" timeLoss="6.46" rerouteNo="0" devices="tripinfo_20" vType="DEFAULT_VEHTYPE" speedFactor="0.89" vaporized=""/>
    <tripinfo id="209" depart="24.00" departLane="227_4way_178to4way_163_0" departPos="5.10" departSpeed="0.00" departDelay="0.78" arrival="49.00" arrivalLane="175_4way_148to4way_133_0" arrivalPos="85.60" arrivalSpeed="13.15" duration="25.00" routeLength="280.50" waitingTime="0.00" waitingCount="0" stopTime="0.00" timeLoss="3.60" rerouteNo="0" devices="tripinfo_209" vType="DEFAULT_VEHTYPE" speedFactor="0.95" vaporized=""/>
    <tripinfo id="317" depart="36.00" departLane="37_3way_179to3way_194_0" departPos="5.10" departSpeed="0.00" departDelay="0.78" arrival="52.00" arrivalLane="41_3way_194to3way_209_0" arrivalPos="85.60" arrivalSpeed="15.02" duration="16.00" routeLength="180.50" waitingTime="0.00" waitingCount="0" stopTime="0.00" timeLoss="3.40" rerouteNo="0" devices="tripinfo_317" vType="DEFAULT_VEHTYPE" speedFactor="1.11" vaporized=""/>
    <tripinfo id="223" depart="25.00" departLane="114_4way_87to4way_102_0" departPos="5.10" departSpeed="0.00" departDelay="0.22" arrival="53.00" arrivalLane="148_4way_117to4way_118_0" arrivalPos="85.60" arrivalSpeed="14.17" duration="28.00" routeLength="275.13" waitingTime="0.00" waitingCount="0" stopTime="0.00" timeLoss="7.68" rerouteNo="0" devices="tripinfo_223" vType="DEFAULT_VEHTYPE" speedFactor="1.03" vaporized=""/>
    <tripinfo id="204" depart="24.00" departLane="345_4way_64to4way_49_0" departPos="5.10" departSpeed="0.00" departDelay="1.34" arrival="56.00" arrivalLane="81_4way_19to3way_4_0" arrivalPos="85.60" arrivalSpeed="15.46" duration="32.00" routeLength="380.50" waitingTime="0.00" waitingCount="0" stopTime="0.00" timeLoss="7.09" rerouteNo="0" devices="tripinfo_204" vType="DEFAULT_VEHTYPE" speedFactor="1.12" vaporized=""/>
    <tripinfo id="307" depart="35.00" departLane="328_4way_53to4way_38_0" departPos="5.10" departSpeed="0.00" departDelay="0.89" arrival="61.00" arrivalLane="300_4way_23to4way_22_0" arrivalPos="85.60" arrivalSpeed="14.06" duration="26.00" routeLength="275.13" waitingTime="0.00" waitingCount="0" stopTime="0.00" timeLoss="5.67" rerouteNo="0" devices="tripinfo_307" vType="DEFAULT_VEHTYPE" speedFactor="1.04" vaporized=""/>
    <tripinfo id="176" depart="20.00" departLane="160_4way_140to4way_125_0" departPos="5.10" departSpeed="0.00" departDelay="0.45" arrival="65.00" arrivalLane="394_4way_80to4way_79_0" arrivalPos="85.60" arrivalSpeed="12.64" duration="45.00" routeLength="475.13" waitingTime="0.00" waitingCount="0" stopTime="0.00" timeLoss="8.43" rerouteNo="0" devices="tripinfo_176" vType="DEFAULT_VEHTYPE" speedFactor="0.97" vaporized=""/>
    <tripinfo id="108" depart="12.00" departLane="125_4way_108to4way_93_0" departPos="5.10" departSpeed="0.00" departDelay="0.00" arrival="70.00" arrivalLane="410_4way_93to4way_92_0" arrivalPos="85.60" arrivalSpeed="5.93" duration="58.00" routeLength="175.13" waitingTime="33.00" waitingCount="1" stopTime="0.00" timeLoss="42.96" rerouteNo="0" devices="tripinfo_108" vType="DEFAULT_VEHTYPE" speedFactor="0.88" vaporized=""/>
    <tripinfo id="249" depart="28.00" departLane="368_4way_78to4way_63_0" departPos="5.10" departSpeed="0.00" departDelay="0.34" arrival="70.00" arrivalLane="365_4way_63to4way_62_0" arrivalPos="85.60" arrivalSpeed="5.05" duration="42.00" routeLength="175.13" waitingTime="20.00" waitingCount="1" stopTime="0.00" timeLoss="30.10" rerouteNo="0" devices="tripinfo_249" vType="DEFAULT_VEHTYPE" speedFactor="1.12" vaporized=""/>
    <tripinfo id="255" depart="29.00" departLane="165_4way_128to4way_129_0" departPos="5.10" departSpeed="0.00" departDelay="0.67" arrival="70.00" arrivalLane="165_4way_128to4way_129_0" arrivalPos="85.60" arrivalSpeed="4.66" duration="41.00" routeLength="80.50" waitingTime="25.00" waitingCount="1" stopTime="0.00" timeLoss="33.35" rerouteNo="0" devices="tripinfo_255" vType="DEFAULT_VEHTYPE" speedFactor="0.76" vaporized=""/>
    <tripinfo id="342" depart="38.00" departLane="243_4way_172to4way_187_0" departPos="5.10" departSpeed="0.00" departDelay="0.00" arrival="70.00" arrivalLane="292_4way_202to4way_203_0" arrivalPos="85.60" arrivalSpeed="5.95" duration="32.00" routeLength="275.13" waitingTime="1.00" waitingCount="1" stopTime="0.00" timeLoss="12.70" rerouteNo="0" devices="tripinfo_342" vType="DEFAULT_VEHTYPE" speedFactor="1.06" vaporized=""/>
    <tripinfo id="429" depart="48.00" departLane="226_4way_162to4way_177_0" departPos="5.10" departSpeed="0.00" departDelay="0.34" arrival="70.00" arrivalLane="282_4way_192to4way_207_0" arrivalPos="85.60" arrivalSpeed="14.93" duration="22.00" routeLength="280.50" waitingTime="0.00" waitingCount="0" stopTime="0.00" timeLoss="4.23" rerouteNo="0" devices="tripinfo_429" vType="DEFAULT_VEHTYPE" speedFactor="1.16" vaporized=""/>
    <tripinfo id="430" depart="48.00" departLane="228_4way_167to4way_166_0" departPos="5.10" departSpeed="0.00" departDelay="0.23" arrival="70.00" arrivalLane="228_4way_167to4way_166_0" arrivalPos="85.60" arrivalSpeed="6.64" duration="22.00" routeLength="80.50" waitingTime="9.00" waitingCount="1" stopTime="0.00" timeLoss="15.21" rerouteNo="0" devices="tripinfo_430" vType="DEFAULT_VEHTYPE" speedFactor="0.90" vaporized=""/>
    <tripinfo id="388" depart="44.00" departLane="384_4way_86to4way_71_0" departPos="5.10" departSpeed="0.00" departDelay="0.89" arrival="71.00" arrivalLane="356_4way_56to4way_55_0" arrivalPos="85.60" arrivalSpeed="12.09" duration="27.00" routeLength="275.13" waitingTime="0.00" waitingCount="0" stopTime="0.00" timeLoss="5.28" rerouteNo="0" devices="tripinfo_388" vType="DEFAULT_VEHTYPE" speedFactor="0.95" vaporized=""/>
    <tripinfo id="548" depart="61.00" departLane="414_4way_96to4way_97_0" departPos="5.10" departSpeed="0.00" departDelay="0.12" arrival="71.00" arrivalLane="414_4way_96to4way_97_0" arrivalPos="85.60" arrivalSpeed="13.31" duration="10.00" routeLength="80.50" waitingTime="0.00" waitingCount="0" stopTime="0.00" timeLoss="3.70" rerouteNo="0" devices="tripinfo_548" vType="DEFAULT_VEHTYPE" speedFactor="0.97" vaporized=""/>
    <tripinfo id="115" depart="18.00" departLane="99_3way_75to4way_76_0" departPos="5.10" departSpeed="0.00" departDelay="5.22" arrival="72.00" arrivalLane="99_3way_75to4way_76_0" arrivalPos="85.60" arrivalSpeed="6.82" duration="54.00" routeLength="80.50" waitingTime="39.00" waitingCount="1" stopTime="0.00" timeLoss="47.67" rerouteNo="0" devices="tripinfo_115" vType="DEFAULT_VEHTYPE" speedFactor="0.92" vaporized=""/>
    <tripinfo id="530" depart="62.00" departLane="45_3way_3to3way_2_0" departPos="5.10" departSpeed="0.00" departDelay="3.12" arrival="72.00" arrivalLane="45_3way_3to3way_2_0" arrivalPos="85.60" arrivalSpeed="11.53" duration="10.00" routeLength="80.50" waitingTime="0.00" waitingCount="0" stopTime="0.00" timeLoss="2.54" rerouteNo="0" devices="tripinfo_530" vType="DEFAULT_VEHTYPE" speedFactor="0.85" vaporized=""/>
    <tripinfo id="275" depart="32.00" departLane="210_4way_170to4way_155_0" departPos="5.10" departSpeed="0.00" departDelay="1.45" arrival="73.00" arrivalLane="126_4way_110to4way_109_0" arrivalPos="85.60" arrivalSpeed="13.13" duration="41.00" routeLength="475.13" waitingTime="0.00" waitingCount="0" stopTime="0.00" timeLoss="6.29" rerouteNo="0" devices="tripinfo_275" vType="DEFAULT_VEHTYPE" speedFactor="1.02" vaporized=""/>
    <tripinfo id="312" depart="35.00" departLane="272_4way_188to4way_203_0" departPos="5.10" departSpeed="0.00" departDelay="0.34" arrival="73.00" arrivalLane="293_4way_203to4way_204_0" arrivalPos="85.60" arrivalSpeed="8.06" duration="38.00" routeLength="175.13" waitingTime="13.00" waitingCount="1" stopTime="0.00" timeLoss="24.23" rerouteNo="0" devices="tripinfo_312" vType="DEFAULT_VEHTYPE" speedFactor="0.98" vaporized=""/>
    <tripinfo id="592" depart="66.00" departLane="302_4way_23to4way_24_0" departPos="5.10" departSpeed="0.00" departDelay="0.23" arrival="75.00" arrivalLane="302_4way_23to4way_24_0" arrivalPos="85.60" arrivalSpeed="14.38" duration="9.00" routeLength="80.50" waitingTime="0.00" waitingCount="0" stopTime="0.00" timeLoss="3.13" rerouteNo="0" devices="tripinfo_592" vType="DEFAULT_VEHTYPE" speedFactor="1.05" vaporized=""/>
    <tripinfo id="26" depart="3.00" departLane="34_3way_164to4way_163_0" departPos="5.10" departSpeed="0.00" departDelay="0.11" arrival="76.00" arrivalLane="227_4way_163to4way_178_0" arrivalPos="85.60" arrivalSpeed="13.82" duration="73.00" routeLength="175.13" waitingTime="53.00" waitingCount="1" stopTime="0.00" timeLoss="60.05" rerouteNo="0" devices="tripinfo_26" vType="DEFAULT_VEHTYPE" speedFactor="1.03" vaporized=""/>
    <tripinfo id="82" depart="10.00" departLane="171_4way_131to4way_132_0" departPos="5.10" departSpeed="0.00" departDelay="0.89" arrival="77.00" arrivalLane="173_4way_132to4way_133_0" arrivalPos="85.60" arrivalSpeed="12.80" duration="67.00" routeLength="180.50" waitingTime="44.00" waitingCount="1" stopTime="0.00" timeLoss="53.38" rerouteNo="0" devices="tripinfo_82" vType="DEFAULT_VEHTYPE" speedFactor="0.99" vaporized=""/>
    <tripinfo id="158" depart="18.00" departLane="134_4way_111to4way_96_0" departPos="5.10" departSpeed="0.00" departDelay="0.45" arrival="77.00" arrivalLane="319_4way_35to4way_34_0" arrivalPos="85.60" arrivalSpeed="12.48" duration="59.00" routeLength="675.13" waitingTime="0.00" waitingCount="0" stopTime="0.00" timeLoss="7.23" rerouteNo="0" devices="tripinfo_158" vType="DEFAULT_VEHTYPE" speedFactor="0.96" vaporized=""/>
    <tripinfo id="304" depart="34.00" departLane="203_4way_152to4way_153_0" departPos="5.10" departSpeed="0.00" departDelay="0.23" arrival="77.00" arrivalLane="205_4way_153to4way_154_0" arrivalPos="85.60" arrivalSpeed="13.14" duration="43.00" routeLength="180.50" waitingTime="20.00" waitingCount="1" stopTime="0.00" timeLoss="29.70" rerouteNo="0" devices="tripinfo_304" vType="DEFAULT_VEHTYPE" speedFactor="1.00" vaporized=""/>
    <tripinfo id="455" depart="51.00" departLane="28_3way_149to4way_148_0" departPos="5.10" departSpeed="0.00" departDelay="0.45" arrival="77.00" arrivalLane="28_3way_149to4way_148_0" arrivalPos="85.60" arrivalSpeed="10.22" duration="26.00" routeLength="80.50" waitingTime="10.00" waitingCount="1" stopTime="0.00" timeLoss="20.39" rerouteNo="0" devices="tripinfo_455" vType="DEFAULT_VEHTYPE" speedFactor="1.08" vaporized=""/>
    <tripinfo id="150" depart="17.00" departLane="357_4way_55to4way_70_0" departPos="5.10" departSpeed="0.00" departDelay="0.33" arrival="78.00" arrivalLane="109_4way_101to4way_102_0" arrivalPos="85.60" arrivalSpeed="12.51" duration="61.00" routeLength="475.13" waitingTime="11.00" waitingCount="1" stopTime="0.00" timeLoss="22.59" rerouteNo="0" devices="tripinfo_150" vType="DEFAULT_VEHTYPE" speedFactor="0.92" vaporized=""/>
    <tripinfo id="159" depart="18.00" departLane="405_4way_84to4way_99_0" departPos="5.10" departSpeed="0.00" departDelay="0.33" arrival="78.00" arrivalLane="194_4way_145to4way_146_0" arrivalPos="85.60" arrivalSpeed="12.99" duration="60.00" routeLength="575.13" waitingTime="4.00" waitingCount="1" stopTime="0.00" timeLoss="17.35" rerouteNo="0" devices="tripinfo_159" vType="DEFAULT_VEHTYPE" speedFactor="0.99" vaporized=""/>
    <tripinfo id="489" depart="55.00" departLane="194_4way_145to4way_146_0" departPos="5.10" departSpeed="0.00" departDelay="0.67" arrival="78.00" arrivalLane="196_4way_146to4way_147_0" arrivalPos="85.60" arrivalSpeed="15.90" duration="23.00" routeLength="180.50" waitingTime="2.00" waitingCount="1" stopTime="0.00" timeLoss="11.41" rerouteNo="0" devices="tripinfo_489" vType="DEFAULT_VEHTYPE" speedFactor="1.15" vaporized=""/>
    <tripinfo id="127" depart="15.00" departLane="8_3way_104to3way_89_0" departPos="5.10" departSpeed="0.00" departDelay="0.89" arrival="79.00" arrivalLane="408_4way_88to4way_87_0" arrivalPos="85.60" arrivalSpeed="12.74" duration="64.00" routeLength="275.13" waitingTime="32.00" waitingCount="1" stopTime="0.00" timeLoss="43.11" rerouteNo="0" devices="tripinfo_127" vType="DEFAULT_VEHTYPE" speedFactor="1.00" vaporized=""/>
    <tripinfo id="267" depart="30.00" departLane="242_4way_173to4way_172_0" departPos="5.10" departSpeed="0.00" departDelay="0.34" arrival="79.00" arrivalLane="240_4way_172to4way_171_0" arrivalPos="85.60" arrivalSpeed="15.21" duration="49.00" routeLength="180.50" waitingTime="25.00" waitingCount="1" stopTime="0.00" timeLoss="36.53" rerouteNo="0" devices="tripinfo_267" vType="DEFAULT_VEHTYPE" speedFactor="1.11" vaporized=""/>
    <tripinfo id="93" depart="11.00" departLane="298_4way_22to4way_21_0" departPos="5.10" departSpeed="0.00" departDelay="0.67" arrival="80.00" arrivalLane="299_4way_21to4way_36_0" arrivalPos="85.60" arrivalSpeed="13.17" duration="69.00" routeLength="175.13" waitingTime="45.00" waitingCount="1" stopTime="0.00" timeLoss="54.85" rerouteNo="0" devices="tripinfo_93" vType="DEFAULT_VEHTYPE" speedFactor="1.00" vaporized=""/>
    <tripinfo id="272" depart="31.00" departLane="246_4way_175to4way_174_0" departPos="5.10" departSpeed="0.00" departDelay="0.78" arrival="80.00" arrivalLane="244_4way_174to4way_173_0" arrivalPos="85.60" arrivalSpeed="9.72" duration="49.00" routeLength="180.50" waitingTime="22.00" waitingCount="1" stopTime="0.00" timeLoss="30.12" rerouteNo="0" devices="tripinfo_272" vType="DEFAULT_VEHTYPE" speedFactor="0.72" vaporized=""/>
    <tripinfo id="301" depart="34.00" departLane="322_4way_35to4way_50_0" departPos="5.10" departSpeed="0.00" departDelay="0.56" arrival="80.00" arrivalLane="398_4way_81to4way_82_0" arrivalPos="85.60" arrivalSpeed="11.48" duration="46.00" routeLength="475.13" waitingTime="0.00" waitingCount="0" stopTime="0.00" timeLoss="6.97" rerouteNo="0" devices="tripinfo_301" vType="DEFAULT_VEHTYPE" speedFactor="0.92" vaporized=""/>
    <tripinfo id="322" depart="36.00" departLane="353_4way_53to4way_68_0" departPos="5.10" departSpeed="0.00" departDelay="0.23" arrival="80.00" arrivalLane="166_4way_128to4way_143_0" arrivalPos="85.60" arrivalSpeed="13.95" duration="44.00" routeLength="580.50" waitingTime="0.00" waitingCount="0" stopTime="0.00" timeLoss="4.81" rerouteNo="0" devices="tripinfo_322" vType="DEFAULT_VEHTYPE" speedFactor="1.08" vaporized=""/>
    <tripinfo id="337" depart="38.00" departLane="324_4way_36to4way_51_0" departPos="5.10" departSpeed="0.00" departDelay="0.56" arrival="80.00" arrivalLane="402_4way_83to4way_84_0" arrivalPos="85.60" arrivalSpeed="15.30" duration="42.00" routeLength="575.13" waitingTime="0.00" waitingCount="0" stopTime="0.00" timeLoss="6.47" rerouteNo="0" devices="tripinfo_337" vType="DEFAULT_VEHTYPE" speedFactor="1.19" vaporized=""/>
    <tripinfo id="535" depart="60.00" departLane="36_3way_165to4way_166_0" departPos="5.10" departSpeed="0.00" departDelay="0.56" arrival="80.00" arrivalLane="202_4way_166to4way_151_0" arrivalPos="85.60" arrivalSpeed="12.08" duration="20.00" routeLength="175.13" waitingTime="0.00" waitingCount="0" stopTime="0.00" timeLoss="5.77" rerouteNo="0" devices="tripinfo_535" vType="DEFAULT_VEHTYPE" speedFactor="0.96" vaporized=""/>
    <tripinfo id="77" depart="9.00" departLane="110_4way_101to4way_116_0" departPos="5.10" departSpeed="0.00" departDelay="0.44" arrival="82.00" arrivalLane="69_3way_221to3way_222_0" arrivalPos="85.60" arrivalSpeed="12.72" duration="73.00" routeLength="875.13" waitingTime="0.00" waitingCount="0" stopTime="0.00" timeLoss="8.08" rerouteNo="0" devices="tripinfo_77" vType="DEFAULT_VEHTYPE" speedFactor="0.99" vaporized=""/>
    <tripinfo id="10" depart="2.00" departLane="170_4way_130to4way_145_0" departPos="5.10" departSpeed="0.00" departDelay="0.89" arrival="84.00" arrivalLane="198_4way_147to4way_148_0" arrivalPos="85.60" arrivalSpeed="13.38" duration="82.00" routeLength="375.13" waitingTime="44.00" waitingCount="1" stopTime="0.00" timeLoss="54.35" rerouteNo="0" devices="tripinfo_10" vType="DEFAULT_VEHTYPE" speedFactor="1.04" vaporized=""/>
    <tripinfo id="168" depart="19.00" departLane="390_4way_78to4way_77_0" departPos="5.10" departSpeed="0.00" departDelay="0.33" arrival="86.00" arrivalLane="389_4way_76to4way_91_0" arrivalPos="85.60" arrivalSpeed="14.31" duration="67.00" routeLength="275.13" waitingTime="35.00" waitingCount="1" stopTime="0.00" timeLoss="47.74" rerouteNo="0" devices="tripinfo_168" vType="DEFAULT_VEHTYPE" speedFactor="1.10" vaporized=""/>
    <tripinfo id="253" depart="29.00" departLane="127_4way_124to4way_109_0" departPos="5.10" departSpeed="0.00" departDelay="0.89" arrival="86.00" arrivalLane="388_4way_77to4way_76_0" arrivalPos="85.60" arrivalSpeed="13.52" duration="57.00" routeLength="575.13" waitingTime="2.00" waitingCount="1" stopTime="0.00" timeLoss="14.04" rerouteNo="0" devices="tripinfo_253" vType="DEFAULT_VEHTYPE" speedFactor="0.99" vaporized=""/>
    <tripinfo id="316" depart="36.00" departLane="362_4way_73to4way_58_0" departPos="5.10" departSpeed="0.00" departDelay="0.89" arrival="88.00" arrivalLane="331_4way_41to4way_40_0" arrivalPos="85.60" arrivalSpeed="11.26" duration="52.00" routeLength="475.13" waitingTime="2.00" waitingCount="1" stopTime="0.00" timeLoss="13.21" rerouteNo="0" devices="tripinfo_316" vType="DEFAULT_VEHTYPE" speedFactor="0.89" vaporized=""/>
    <tripinfo id="310" depart="35.00" departLane="246_4way_175to4way_174_0" departPos="5.10" departSpeed="0.00" departDelay="0.56" arrival="89.00" arrivalLane="242_4way_173to4way_172_0" arrivalPos="85.60" arrivalSpeed="12.30" duration="54.00" routeLength="280.50" waitingTime="21.00" waitingCount="1" stopTime="0.00" timeLoss="32.39" rerouteNo="0" devices="tripinfo_310" vType="DEFAULT_VEHTYPE" speedFactor="0.94" vaporized=""/>
    <tripinfo id="323" depart="36.00" departLane="28_3way_149to4way_148_0" departPos="5.10" departSpeed="0.00" departDelay="0.11" arrival="89.00" arrivalLane="196_4way_147to4way_146_0" arrivalPos="85.60" arrivalSpeed="14.83" duration="53.00" routeLength="280.50" waitingTime="21.00" waitingCount="1" stopTime="0.00" timeLoss="34.99" rerouteNo="0" devices="tripinfo_323" vType="DEFAULT_VEHTYPE" speedFactor="1.15" vaporized=""/>
    <tripinfo id="60" depart="7.00" departLane="131_4way_110to4way_95_0" departPos="5.10" departSpeed="0.00" departDelay="0.33" arrival="90.00" arrivalLane="402_4way_83to4way_84_0" arrivalPos="85.60" arrivalSpeed="15.07" duration="83.00" routeLength="580.30" waitingTime="30.00" waitingCount="1" stopTime="0.00" timeLoss="44.71" rerouteNo="0" devices="tripinfo_60" vType="DEFAULT_VEHTYPE" speedFactor="1.12" vaporized=""/>
    <tripinfo id="120" depart="14.00" departLane="41_3way_209to3way_194_0" departPos="5.10" departSpeed="0.00" departDelay="0.67" arrival="91.00" arrivalLane="196_4way_147to4way_146_0" arrivalPos="85.60" arrivalSpeed="14.73" duration="77.00" routeLength="675.13" waitingTime="13.00" waitingCount="1" stopTime="0.00" timeLoss="29.33" rerouteNo="0" devices="tripinfo_120" vType="DEFAULT_VEHTYPE" speedFactor="1.06" vaporized=""/>
    <tripinfo id="673" depart="75.00" departLane="316_4way_47to4way_32_0" departPos="5.10" departSpeed="0.00" departDelay="0.23" arrival="92.00" arrivalLane="237_4way_32to4way_17_0" arrivalPos="85.60" arrivalSpeed="13.84" duration="17.00" routeLength="180.50" waitingTime="0.00" waitingCount="0" stopTime="0.00" timeLoss="3.79" rerouteNo="0" devices="tripinfo_673" vType="DEFAULT_VEHTYPE" speedFactor="1.04" vaporized=""/>
    <tripinfo id="475" depart="53.00" departLane="50_4way_196to3way_211_0" departPos="5.10" departSpeed="0.00" departDelay="0.23" arrival="94.00" arrivalLane="53_3way_213to3way_214_0" arrivalPos="85.60" arrivalSpeed="13.23" duration="41.00" routeLength="375.13" waitingTime="2.00" waitingCount="1" stopTime="0.00" timeLoss="12.55" rerouteNo="0" devices="tripinfo_475" vType="DEFAULT_VEHTYPE" speedFactor="1.00" vaporized=""/>
    <tripinfo id="98" depart="11.00" departLane="99_4way_76to3way_75_0" departPos="5.10" departSpeed="0.00" departDelay="0.11" arrival="95.00" arrivalLane="78_3way_45to3way_30_0" arrivalPos="85.60" arrivalSpeed="12.20" duration="84.00" routeLength="380.29" waitingTime="44.00" waitingCount="1" stopTime="0.00" timeLoss="52.02" rerouteNo="0" devices="tripinfo_98" vType="DEFAULT_VEHTYPE" speedFactor="0.88" vaporized=""/>
    <tripinfo id="349" depart="39.00" departLane="84_3way_45to3way_60_0" departPos="5.10" departSpeed="0.00" departDelay="0.23" arrival="96.00" arrivalLane="390_4way_77to4way_78_0" arrivalPos="85.60" arrivalSpeed="11.33" duration="57.00" routeLength="475.13" waitingTime="4.00" waitingCount="1" stopTime="0.00" timeLoss="16.69" rerouteNo="0" devices="tripinfo_349" vType="DEFAULT_VEHTYPE" speedFactor="0.89" vaporized=""/>
    <tripinfo id="606" depart="68.00" departLane="160_4way_125to4way_140_0" departPos="5.10" departSpeed="0.00" departDelay="0.67" arrival="97.00" arrivalLane="186_4way_141to4way_142_0" arrivalPos="85.60" arrivalSpeed="11.76" duration="29.00" routeLength="275.13" waitingTime="0.00" waitingCount="0" stopTime="0.00" timeLoss="5.68" rerouteNo="0" devices="tripinfo_606" vType="DEFAULT_VEHTYPE" speedFactor="0.90" vaporized=""/>
    <tripinfo id="374" depart="42.00" departLane="374_4way_81to4way_66_0" departPos="5.10" departSpeed="0.00" departDelay="0.45" arrival="98.00" arrivalLane="315_4way_33to4way_32_0" arrivalPos="85.60" arrivalSpeed="13.01" duration="56.00" routeLength="675.13" waitingTime="0.00" waitingCount="0" stopTime="0.00" timeLoss="6.98" rerouteNo="0" devices="tripinfo_374" vType="DEFAULT_VEHTYPE" speedFactor="1.01" vaporized=""/>
    <tripinfo id="380" depart="43.00" departLane="203_4way_152to4way_153_0" departPos="5.10" departSpeed="0.00" departDelay="0.78" arrival="98.00" arrivalLane="158_4way_139to4way_124_0" arrivalPos="85.60" arrivalSpeed="12.82" duration="55.00" routeLength="375.13" waitingTime="14.00" waitingCount="1" stopTime="0.00" timeLoss="24.99" rerouteNo="0" devices="tripinfo_380" vType="DEFAULT_VEHTYPE" speedFactor="0.95" vaporized=""/>
    <tripinfo id="629" depart="70.00" departLane="209_4way_156to4way_155_0" departPos="5.10" departSpeed="0.00" departDelay="0.12" arrival="98.00" arrivalLane="208_4way_154to4way_169_0" arrivalPos="85.60" arrivalSpeed="12.41" duration="28.00" routeLength="275.13" waitingTime="0.00" waitingCount="0" stopTime="0.00" timeLoss="5.47" rerouteNo="0" devices="tripinfo_629" vType="DEFAULT_VEHTYPE" speedFactor="0.91" vaporized=""/>