<?xml version="1.0" encoding="UTF-8"?>

<!-- generated on 2023-11-28 16:12:46 by Eclipse SUMO sumo Version 1.12.0
<configuration xmlns:xsi="http://www.w3.org/2001/XMLSchema-instance" xsi:noNamespaceSchemaLocation="http://sumo.dlr.de/xsd/sumoConfiguration.xsd">

    <input>
        <net-file value="../../data_generation/sapporo_HY.net.xml"/>
        <route-files value="../../data_generation/sapporo_HY.rou.xml"/>
    </input>

    <output>
        <tripinfo-output value="tripinfo.xml"/>
        <statistic-output value="statistic.xml"/>
    </output>

    <time>
        <begin value="0"/>
        <end value="3600"/>
    </time>

    <processing>
        <time-to-teleport value="-1"/>
    </processing>

    <traci_server>
        <remote-port value="41557"/>
    </traci_server>

    <random_number>
        <seed value="2"/>
    </random_number>

    <gui_only>
        <gui-settings-file value="../../data_generation/view_HY_0402.xml"/>
    </gui_only>

</configuration>
-->

<tripinfos xmlns:xsi="http://www.w3.org/2001/XMLSchema-instance" xsi:noNamespaceSchemaLocation="http://sumo.dlr.de/xsd/tripinfo_file.xsd">
    <tripinfo id="7" depart="6.00" departLane="12_3way_B10to3way_A09_0" departPos="5.10" departSpeed="0.00" departDelay="0.54" arrival="25.00" arrivalLane="12_3way_B10to3way_A09_0" arrivalPos="182.40" arrivalSpeed="10.61" duration="19.00" routeLength="177.30" waitingTime="0.00" waitingCount="0" stopTime="0.00" timeLoss="3.23" rerouteNo="0" devices="tripinfo_7" vType="DEFAULT_VEHTYPE" speedFactor="0.81" vaporized=""/>
    <tripinfo id="15" depart="12.00" departLane="107_4way_F02to4way_G02_0" departPos="5.10" departSpeed="0.00" departDelay="0.30" arrival="28.00" arrivalLane="55_4way_G02to3way_H02_0" arrivalPos="85.60" arrivalSpeed="14.60" duration="16.00" routeLength="180.50" waitingTime="0.00" waitingCount="0" stopTime="0.00" timeLoss="3.57" rerouteNo="0" devices="tripinfo_15" vType="DEFAULT_VEHTYPE" speedFactor="1.12" vaporized=""/>
    <tripinfo id="51" depart="40.00" departLane="83_4way_D06to4way_D07_0" departPos="5.10" departSpeed="0.00" departDelay="0.22" arrival="50.00" arrivalLane="83_4way_D06to4way_D07_0" arrivalPos="85.60" arrivalSpeed="14.45" duration="10.00" routeLength="80.50" waitingTime="0.00" waitingCount="0" stopTime="0.00" timeLoss="4.05" rerouteNo="0" devices="tripinfo_51" vType="DEFAULT_VEHTYPE" speedFactor="1.08" vaporized=""/>
    <tripinfo id="34" depart="27.00" departLane="88_4way_D08to4way_E08_0" departPos="5.10" departSpeed="0.00" departDelay="0.48" arrival="52.00" arrivalLane="119_4way_F08to4way_G08_0" arrivalPos="85.60" arrivalSpeed="13.58" duration="25.00" routeLength="280.50" waitingTime="0.00" waitingCount="0" stopTime="0.00" timeLoss="4.26" rerouteNo="0" devices="tripinfo_34" vType="DEFAULT_VEHTYPE" speedFactor="0.98" vaporized=""/>
    <tripinfo id="52" depart="41.00" departLane="63_4way_G06to3way_H06_0" departPos="5.10" departSpeed="0.00" departDelay="0.44" arrival="59.00" arrivalLane="60_3way_H06to3way_H05_0" arrivalPos="85.60" arrivalSpeed="15.07" duration="18.00" routeLength="180.29" waitingTime="0.00" waitingCount="0" stopTime="0.00" timeLoss="5.50" rerouteNo="0" devices="tripinfo_52" vType="DEFAULT_VEHTYPE" speedFactor="1.16" vaporized=""/>
    <tripinfo id="65" depart="51.00" departLane="83_4way_D07to4way_D06_0" departPos="5.10" departSpeed="0.00" departDelay="0.30" arrival="61.00" arrivalLane="83_4way_D07to4way_D06_0" arrivalPos="85.60" arrivalSpeed="12.98" duration="10.00" routeLength="80.50" waitingTime="0.00" waitingCount="0" stopTime="0.00" timeLoss="3.17" rerouteNo="0" devices="tripinfo_65" vType="DEFAULT_VEHTYPE" speedFactor="0.98" vaporized=""/>
    <tripinfo id="49" depart="39.00" departLane="127_4way_G07to4way_G08_0" departPos="5.10" departSpeed="0.00" departDelay="0.78" arrival="66.00" arrivalLane="102_4way_F08to4way_E08_0" arrivalPos="85.60" arrivalSpeed="13.97" duration="27.00" routeLength="275.13" waitingTime="0.00" waitingCount="0" stopTime="0.00" timeLoss="6.38" rerouteNo="0" devices="tripinfo_49" vType="DEFAULT_VEHTYPE" speedFactor="1.05" vaporized=""/>
    <tripinfo id="73" depart="57.00" departLane="47_4way_F09to3way_F10_0" departPos="5.10" departSpeed="0.00" departDelay="0.06" arrival="67.00" arrivalLane="47_4way_F09to3way_F10_0" arrivalPos="85.60" arrivalSpeed="11.48" duration="10.00" routeLength="80.50" waitingTime="0.00" waitingCount="0" stopTime="0.00" timeLoss="3.23" rerouteNo="0" devices="tripinfo_73" vType="DEFAULT_VEHTYPE" speedFactor="0.91" vaporized=""/>
    <tripinfo id="63" depart="50.00" departLane="74_4way_B09to4way_C09_0" departPos="5.10" departSpeed="0.00" departDelay="0.86" arrival="70.00" arrivalLane="79_4way_C09to4way_D09_0" arrivalPos="85.60" arrivalSpeed="11.25" duration="20.00" routeLength="180.50" waitingTime="0.00" waitingCount="0" stopTime="0.00" timeLoss="4.24" rerouteNo="0" devices="tripinfo_63" vType="DEFAULT_VEHTYPE" speedFactor="0.86" vaporized=""/>
    <tripinfo id="77" depart="61.00" departLane="11_3way_A08to4way_B08_0" departPos="5.10" departSpeed="0.00" departDelay="0.94" arrival="71.00" arrivalLane="11_3way_A08to4way_B08_0" arrivalPos="85.60" arrivalSpeed="11.67" duration="10.00" routeLength="80.50" waitingTime="0.00" waitingCount="0" stopTime="0.00" timeLoss="2.92" rerouteNo="0" devices="tripinfo_77" vType="DEFAULT_VEHTYPE" speedFactor="0.93" vaporized=""/>
    <tripinfo id="80" depart="63.00" departLane="119_4way_F08to4way_G08_0" departPos="5.10" departSpeed="0.00" departDelay="0.60" arrival="72.00" arrivalLane="119_4way_F08to4way_G08_0" arrivalPos="85.60" arrivalSpeed="14.69" duration="9.00" routeLength="80.50" waitingTime="0.00" waitingCount="0" stopTime="0.00" timeLoss="3.15" rerouteNo="0" devices="tripinfo_80" vType="DEFAULT_VEHTYPE" speedFactor="1.06" vaporized=""/>
    <tripinfo id="81" depart="64.00" departLane="3_4way_B04to3way_A04_0" departPos="5.10" departSpeed="0.00" departDelay="0.82" arrival="74.00" arrivalLane="3_4way_B04to3way_A04_0" arrivalPos="85.60" arrivalSpeed="11.46" duration="10.00" routeLength="80.50" waitingTime="0.00" waitingCount="0" stopTime="0.00" timeLoss="2.88" rerouteNo="0" devices="tripinfo_81" vType="DEFAULT_VEHTYPE" speedFactor="0.87" vaporized=""/>
    <tripinfo id="67" depart="53.00" departLane="21_3way_C03to4way_D03_0" departPos="5.10" departSpeed="0.00" departDelay="0.74" arrival="82.00" arrivalLane="40_4way_E03to3way_E02_0" arrivalPos="85.60" arrivalSpeed="12.01" duration="29.00" routeLength="280.30" waitingTime="0.00" waitingCount="0" stopTime="0.00" timeLoss="6.12" rerouteNo="0" devices="tripinfo_67" vType="DEFAULT_VEHTYPE" speedFactor="0.94" vaporized=""/>
    <tripinfo id="74" depart="58.00" departLane="36_4way_D09to3way_D10_0" departPos="5.10" departSpeed="0.00" departDelay="0.28" arrival="92.00" arrivalLane="46_3way_F10to3way_G10_0" arrivalPos="85.60" arrivalSpeed="12.62" duration="34.00" routeLength="380.29" waitingTime="0.00" waitingCount="0" stopTime="0.00" timeLoss="5.52" rerouteNo="0" devices="tripinfo_74" vType="DEFAULT_VEHTYPE" speedFactor="1.00" vaporized=""/>
    <tripinfo id="96" depart="75.00" departLane="56_3way_H03to3way_H04_0" departPos="5.10" departSpeed="0.00" departDelay="0.12" arrival="92.00" arrivalLane="58_3way_H04to3way_H05_0" arrivalPos="85.60" arrivalSpeed="13.90" duration="17.00" routeLength="180.50" waitingTime="0.00" waitingCount="0" stopTime="0.00" timeLoss="3.86" rerouteNo="0" devices="tripinfo_96" vType="DEFAULT_VEHTYPE" speedFactor="1.03" vaporized=""/>
    <tripinfo id="101" depart="79.00" departLane="23_3way_C04to4way_D04_0" departPos="5.10" departSpeed="0.00" departDelay="0.22" arrival="95.00" arrivalLane="82_4way_D04to4way_E04_0" arrivalPos="85.60" arrivalSpeed="14.42" duration="16.00" routeLength="180.50" waitingTime="0.00" waitingCount="0" stopTime="0.00" timeLoss="3.66" rerouteNo="0" devices="tripinfo_101" vType="DEFAULT_VEHTYPE" speedFactor="1.10" vaporized=""/>
    <tripinfo id="88" depart="70.00" departLane="36_4way_D09to3way_D10_0" departPos="5.10" departSpeed="0.00" departDelay="1.36" arrival="105.00" arrivalLane="46_3way_F10to3way_G10_0" arrivalPos="85.60" arrivalSpeed="12.16" duration="35.00" routeLength="380.29" waitingTime="0.00" waitingCount="0" stopTime="0.00" timeLoss="4.78" rerouteNo="0" devices="tripinfo_88" vType="DEFAULT_VEHTYPE" speedFactor="0.93" vaporized=""/>
    <tripinfo id="107" depart="84.00" departLane="98_4way_F06to4way_E06_0" departPos="5.10" departSpeed="0.00" departDelay="0.54" arrival="111.00" arrivalLane="83_4way_D06to4way_D07_0" arrivalPos="85.60" arrivalSpeed="12.63" duration="27.00" routeLength="280.30" waitingTime="0.00" waitingCount="0" stopTime="0.00" timeLoss="4.53" rerouteNo="0" devices="tripinfo_107" vType="DEFAULT_VEHTYPE" speedFactor="0.93" vaporized=""/>
    <tripinfo id="113" depart="89.00" departLane="60_3way_H06to3way_H05_0" departPos="5.10" departSpeed="0.00" departDelay="0.86" arrival="115.00" arrivalLane="56_3way_H04to3way_H03_0" arrivalPos="85.60" arrivalSpeed="12.37" duration="26.00" routeLength="280.50" waitingTime="0.00" waitingCount="0" stopTime="0.00" timeLoss="3.62" rerouteNo="0" devices="tripinfo_113" vType="DEFAULT_VEHTYPE" speedFactor="0.94" vaporized=""/>
    <tripinfo id="118" depart="93.00" departLane="36_3way_D10to4way_D09_0" departPos="5.10" departSpeed="0.00" departDelay="0.96" arrival="117.00" arrivalLane="103_4way_E09to4way_F09_0" arrivalPos="85.60" arrivalSpeed="14.93" duration="24.00" routeLength="275.13" waitingTime="0.00" waitingCount="0" stopTime="0.00" timeLoss="6.25" rerouteNo="0" devices="tripinfo_118" vType="DEFAULT_VEHTYPE" speedFactor="1.15" vaporized=""/>
    <tripinfo id="130" depart="102.00" departLane="108_4way_F03to4way_F04_0" departPos="5.10" departSpeed="0.00" departDelay="0.60" arrival="122.00" arrivalLane="94_4way_F04to4way_E04_0" arrivalPos="85.60" arrivalSpeed="12.05" duration="20.00" routeLength="175.13" waitingTime="0.00" waitingCount="0" stopTime="0.00" timeLoss="5.67" rerouteNo="0" devices="tripinfo_130" vType="DEFAULT_VEHTYPE" speedFactor="0.92" vaporized=""/>
    <tripinfo id="109" depart="86.00" departLane="108_4way_F04to4way_F03_0" departPos="5.10" departSpeed="0.00" departDelay="0.98" arrival="123.00" arrivalLane="55_4way_G02to3way_H02_0" arrivalPos="85.60" arrivalSpeed="11.63" duration="37.00" routeLength="375.13" waitingTime="0.00" waitingCount="0" stopTime="0.00" timeLoss="6.08" rerouteNo="0" devices="tripinfo_109" vType="DEFAULT_VEHTYPE" speedFactor="0.91" vaporized=""/>
    <tripinfo id="147" depart="115.00" departLane="127_4way_G07to4way_G08_0" departPos="5.10" departSpeed="0.00" departDelay="0.34" arrival="125.00" arrivalLane="127_4way_G07to4way_G08_0" arrivalPos="85.60" arrivalSpeed="15.94" duration="10.00" routeLength="80.50" waitingTime="0.00" waitingCount="0" stopTime="0.00" timeLoss="4.55" rerouteNo="0" devices="tripinfo_147" vType="DEFAULT_VEHTYPE" speedFactor="1.18" vaporized=""/>
    <tripinfo id="11" depart="9.00" departLane="108_4way_F03to4way_F04_0" departPos="5.10" departSpeed="0.00" departDelay="0.42" arrival="130.00" arrivalLane="26_4way_D06to3way_C06_0" arrivalPos="85.60" arrivalSpeed="6.40" duration="121.00" routeLength="575.13" waitingTime="62.00" waitingCount="1" stopTime="0.00" timeLoss="73.07" rerouteNo="0" devices="tripinfo_11" vType="DEFAULT_VEHTYPE" speedFactor="0.89" vaporized=""/>
    <tripinfo id="60" depart="47.00" departLane="87_4way_D08to4way_D09_0" departPos="5.10" departSpeed="0.00" departDelay="0.20" arrival="130.00" arrivalLane="74_4way_C09to4way_B09_0" arrivalPos="85.60" arrivalSpeed="5.78" duration="83.00" routeLength="275.13" waitingTime="48.00" waitingCount="1" stopTime="0.00" timeLoss="58.36" rerouteNo="0" devices="tripinfo_60" vType="DEFAULT_VEHTYPE" speedFactor="0.84" vaporized=""/>
    <tripinfo id="76" depart="60.00" departLane="34_3way_D05to4way_E05_0" departPos="5.10" departSpeed="0.00" departDelay="0.72" arrival="130.00" arrivalLane="96_4way_E05to4way_F05_0" arrivalPos="85.60" arrivalSpeed="4.62" duration="70.00" routeLength="180.50" waitingTime="49.00" waitingCount="1" stopTime="0.00" timeLoss="57.68" rerouteNo="0" devices="tripinfo_76" vType="DEFAULT_VEHTYPE" speedFactor="1.06" vaporized=""/>
    <tripinfo id="135" depart="106.00" departLane="125_4way_G06to4way_G05_0" departPos="5.10" departSpeed="0.00" departDelay="0.70" arrival="130.00" arrivalLane="61_4way_G05to3way_H05_0" arrivalPos="85.60" arrivalSpeed="5.55" duration="24.00" routeLength="175.13" waitingTime="1.00" waitingCount="1" stopTime="0.00" timeLoss="10.64" rerouteNo="0" devices="tripinfo_135" vType="DEFAULT_VEHTYPE" speedFactor="1.03" vaporized=""/>
    <tripinfo id="157" depart="123.00" departLane="102_4way_E08to4way_F08_0" departPos="5.10" departSpeed="0.00" departDelay="0.54" arrival="132.00" arrivalLane="102_4way_E08to4way_F08_0" arrivalPos="85.60" arrivalSpeed="12.84" duration="9.00" routeLength="80.50" waitingTime="0.00" waitingCount="0" stopTime="0.00" timeLoss="2.85" rerouteNo="0" devices="tripinfo_157" vType="DEFAULT_VEHTYPE" speedFactor="1.00" vaporized=""/>
    <tripinfo id="82" depart="64.00" departLane="68_3way_H09to4way_G09_0" departPos="5.10" departSpeed="0.00" departDelay="0.04" arrival="133.00" arrivalLane="101_4way_E09to4way_E08_0" arrivalPos="85.60" arrivalSpeed="7.52" duration="69.00" routeLength="375.13" waitingTime="31.00" waitingCount="1" stopTime="0.00" timeLoss="44.73" rerouteNo="0" devices="tripinfo_82" vType="DEFAULT_VEHTYPE" speedFactor="1.14" vaporized=""/>
    <tripinfo id="161" depart="126.00" departLane="95_4way_E06to4way_E05_0" departPos="5.10" departSpeed="0.00" departDelay="0.42" arrival="135.00" arrivalLane="95_4way_E06to4way_E05_0" arrivalPos="85.60" arrivalSpeed="14.77" duration="9.00" routeLength="80.50" waitingTime="0.00" waitingCount="0" stopTime="0.00" timeLoss="3.30" rerouteNo="0" devices="tripinfo_161" vType="DEFAULT_VEHTYPE" speedFactor="1.10" vaporized=""/>
    <tripinfo id="19" depart="15.00" departLane="20_3way_C03to3way_C04_0" departPos="5.10" departSpeed="0.00" departDelay="0.18" arrival="136.00" arrivalLane="22_3way_C04to4way_B04_0" arrivalPos="85.60" arrivalSpeed="13.15" duration="121.00" routeLength="175.13" waitingTime="100.00" waitingCount="1" stopTime="0.00" timeLoss="107.31" rerouteNo="0" devices="tripinfo_19" vType="DEFAULT_VEHTYPE" speedFactor="0.97" vaporized=""/>
    <tripinfo id="5" depart="4.00" departLane="81_4way_D03to4way_E03_0" departPos="5.10" departSpeed="0.00" departDelay="0.10" arrival="137.00" arrivalLane="108_4way_F03to4way_F04_0" arrivalPos="85.60" arrivalSpeed="12.05" duration="133.00" routeLength="275.13" waitingTime="103.00" waitingCount="1" stopTime="0.00" timeLoss="110.49" rerouteNo="0" devices="tripinfo_5" vType="DEFAULT_VEHTYPE" speedFactor="0.90" vaporized=""/>
    <tripinfo id="16" depart="13.00" departLane="32_3way_D05to4way_D04_0" departPos="5.10" departSpeed="0.00" departDelay="0.52" arrival="137.00" arrivalLane="23_4way_D04to3way_C04_0" arrivalPos="85.60" arrivalSpeed="12.62" duration="124.00" routeLength="180.30" waitingTime="103.00" waitingCount="1" stopTime="0.00" timeLoss="110.06" rerouteNo="0" devices="tripinfo_16" vType="DEFAULT_VEHTYPE" speedFactor="0.98" vaporized=""/>
    <tripinfo id="18" depart="15.00" departLane="96_4way_E05to4way_F05_0" departPos="5.10" departSpeed="0.00" departDelay="0.96" arrival="137.00" arrivalLane="113_4way_F05to4way_G05_0" arrivalPos="85.60" arrivalSpeed="12.98" duration="122.00" routeLength="180.50" waitingTime="98.00" waitingCount="1" stopTime="0.00" timeLoss="108.37" rerouteNo="0" devices="tripinfo_18" vType="DEFAULT_VEHTYPE" speedFactor="1.00" vaporized=""/>
    <tripinfo id="78" depart="61.00" departLane="23_3way_C04to4way_D04_0" departPos="5.10" departSpeed="0.00" departDelay="0.16" arrival="137.00" arrivalLane="95_4way_E05to4way_E06_0" arrivalPos="85.60" arrivalSpeed="12.33" duration="76.00" routeLength="375.13" waitingTime="36.00" waitingCount="1" stopTime="0.00" timeLoss="47.77" rerouteNo="0" devices="tripinfo_78" vType="DEFAULT_VEHTYPE" speedFactor="0.98" vaporized=""/>
    <tripinfo id="79" depart="62.00" departLane="103_4way_F09to4way_E09_0" departPos="5.10" departSpeed="0.00" departDelay="0.38" arrival="137.00" arrivalLane="99_4way_E08to4way_E07_0" arrivalPos="85.60" arrivalSpeed="15.05" duration="75.00" routeLength="275.13" waitingTime="44.00" waitingCount="1" stopTime="0.00" timeLoss="56.71" rerouteNo="0" devices="tripinfo_79" vType="DEFAULT_VEHTYPE" speedFactor="1.17" vaporized=""/>
    <tripinfo id="154" depart="121.00" departLane="12_3way_B10to3way_A09_0" departPos="5.10" departSpeed="0.00" departDelay="0.88" arrival="137.00" arrivalLane="12_3way_B10to3way_A09_0" arrivalPos="182.40" arrivalSpeed="14.35" duration="16.00" routeLength="177.30" waitingTime="0.00" waitingCount="0" stopTime="0.00" timeLoss="3.70" rerouteNo="0" devices="tripinfo_154" vType="DEFAULT_VEHTYPE" speedFactor="1.08" vaporized=""/>
    <tripinfo id="58" depart="46.00" departLane="77_4way_C09to4way_C08_0" departPos="5.10" departSpeed="0.00" departDelay="0.76" arrival="138.00" arrivalLane="88_4way_D08to4way_E08_0" arrivalPos="85.60" arrivalSpeed="10.69" duration="92.00" routeLength="275.13" waitingTime="57.00" waitingCount="1" stopTime="0.00" timeLoss="66.05" rerouteNo="0" devices="tripinfo_58" vType="DEFAULT_VEHTYPE" speedFactor="0.81" vaporized=""/>
    <tripinfo id="70" depart="55.00" departLane="95_4way_E06to4way_E05_0" departPos="5.10" departSpeed="0.00" departDelay="0.40" arrival="138.00" arrivalLane="96_4way_E05to4way_F05_0" arrivalPos="85.60" arrivalSpeed="10.75" duration="83.00" routeLength="175.13" waitingTime="59.00" waitingCount="1" stopTime="0.00" timeLoss="66.82" rerouteNo="0" devices="tripinfo_70" vType="DEFAULT_VEHTYPE" speedFactor="0.82" vaporized=""/>
    <tripinfo id="165" depart="129.00" departLane="106_4way_F02to4way_F03_0" departPos="5.10" departSpeed="0.00" departDelay="0.30" arrival="138.00" arrivalLane="106_4way_F02to4way_F03_0" arrivalPos="85.60" arrivalSpeed="14.08" duration="9.00" routeLength="80.50" waitingTime="0.00" waitingCount="0" stopTime="0.00" timeLoss="3.17" rerouteNo="0" devices="tripinfo_165" vType="DEFAULT_VEHTYPE" speedFactor="1.05" vaporized=""/>
    <tripinfo id="72" depart="57.00" departLane="120_4way_G09to4way_F09_0" departPos="5.10" departSpeed="0.00" departDelay="0.84" arrival="139.00" arrivalLane="99_4way_E08to4way_E07_0" arrivalPos="85.60" arrivalSpeed="12.94" duration="82.00" routeLength="375.13" waitingTime="41.00" waitingCount="1" stopTime="0.00" timeLoss="54.25" rerouteNo="0" devices="tripinfo_72" vType="DEFAULT_VEHTYPE" speedFactor="1.01" vaporized=""/>
    <tripinfo id="116" depart="91.00" departLane="24_3way_C06to4way_B06_0" departPos="5.10" departSpeed="0.00" departDelay="0.52" arrival="139.00" arrivalLane="17_4way_B06to3way_B05_0" arrivalPos="85.60" arrivalSpeed="11.91" duration="48.00" routeLength="175.13" waitingTime="24.00" waitingCount="1" stopTime="0.00" timeLoss="33.21" rerouteNo="0" devices="tripinfo_116" vType="DEFAULT_VEHTYPE" speedFactor="0.94" vaporized=""/>
    <tripinfo id="100" depart="78.00" departLane="8_3way_A08to3way_A07_0" departPos="5.10" departSpeed="0.00" departDelay="0.00" arrival="141.00" arrivalLane="4_3way_A06to3way_A05_0" arrivalPos="85.60" arrivalSpeed="14.76" duration="63.00" routeLength="280.50" waitingTime="33.00" waitingCount="1" stopTime="0.00" timeLoss="44.41" rerouteNo="0" devices="tripinfo_100" vType="DEFAULT_VEHTYPE" speedFactor="1.10" vaporized=""/>
    <tripinfo id="110" depart="86.00" departLane="63_4way_G06to3way_H06_0" departPos="5.10" departSpeed="0.00" departDelay="0.20" arrival="141.00" arrivalLane="64_3way_H07to3way_H08_0" arrivalPos="85.60" arrivalSpeed="12.82" duration="55.00" routeLength="275.13" waitingTime="22.00" waitingCount="1" stopTime="0.00" timeLoss="33.76" rerouteNo="0" devices="tripinfo_110" vType="DEFAULT_VEHTYPE" speedFactor="1.00" vaporized=""/>
    <tripinfo id="44" depart="35.00" departLane="99_4way_E07to4way_E08_0" departPos="5.10" departSpeed="0.00" departDelay="0.68" arrival="144.00" arrivalLane="43_4way_E09to3way_E10_0" arrivalPos="85.60" arrivalSpeed="13.20" duration="109.00" routeLength="280.50" waitingTime="80.00" waitingCount="1" stopTime="0.00" timeLoss="88.85" rerouteNo="0" devices="tripinfo_44" vType="DEFAULT_VEHTYPE" speedFactor="1.02" vaporized=""/>
    <tripinfo id="174" depart="136.00" departLane="74_4way_C09to4way_B09_0" departPos="5.10" departSpeed="0.00" departDelay="0.28" arrival="145.00" arrivalLane="74_4way_C09to4way_B09_0" arrivalPos="85.60" arrivalSpeed="14.69" duration="9.00" routeLength="80.50" waitingTime="0.00" waitingCount="0" stopTime="0.00" timeLoss="2.94" rerouteNo="0" devices="tripinfo_174" vType="DEFAULT_VEHTYPE" speedFactor="1.09" vaporized=""/>
    <tripinfo id="25" depart="20.00" departLane="50_3way_G10to3way_H09_0" departPos="5.10" departSpeed="0.00" departDelay="0.50" arrival="146.00" arrivalLane="62_3way_H07to3way_H06_0" arrivalPos="85.60" arrivalSpeed="10.89" duration="126.00" routeLength="483.70" waitingTime="76.00" waitingCount="1" stopTime="0.00" timeLoss="85.18" rerouteNo="0" devices="tripinfo_25" vType="DEFAULT_VEHTYPE" speedFactor="0.86" vaporized=""/>
    <tripinfo id="94" depart="74.00" departLane="61_4way_G05to3way_H05_0" departPos="5.10" departSpeed="0.00" departDelay="0.68" arrival="151.00" arrivalLane="64_3way_H07to3way_H08_0" arrivalPos="85.60" arrivalSpeed="13.64" duration="77.00" routeLength="375.13" waitingTime="41.00" waitingCount="1" stopTime="0.00" timeLoss="49.26" rerouteNo="0" devices="tripinfo_94" vType="DEFAULT_VEHTYPE" speedFactor="1.01" vaporized=""/>
    <tripinfo id="184" depart="144.00" departLane="90_4way_E01to4way_F01_0" departPos="5.10" departSpeed="0.00" departDelay="0.48" arrival="153.00" arrivalLane="90_4way_E01to4way_F01_0" arrivalPos="85.60" arrivalSpeed="12.43" duration="9.00" routeLength="80.50" waitingTime="0.00" waitingCount="0" stopTime="0.00" timeLoss="2.73" rerouteNo="0" devices="tripinfo_184" vType="DEFAULT_VEHTYPE" speedFactor="0.97" vaporized=""/>
    <tripinfo id="91" depart="71.00" departLane="83_4way_D07to4way_D06_0" departPos="5.10" departSpeed="0.00" departDelay="0.02" arrival="158.00" arrivalLane="80_4way_D04to4way_D03_0" arrivalPos="85.60" arrivalSpeed="13.03" duration="87.00" routeLength="380.50" waitingTime="46.00" waitingCount="1" stopTime="0.00" timeLoss="58.04" rerouteNo="0" devices="tripinfo_91" vType="DEFAULT_VEHTYPE" speedFactor="0.97" vaporized=""/>
    <tripinfo id="171" depart="134.00" departLane="37_3way_F00to3way_E00_0" departPos="5.10" departSpeed="0.00" departDelay="0.62" arrival="158.00" arrivalLane="29_3way_E00to3way_D01_0" arrivalPos="188.80" arrivalSpeed="13.47" duration="24.00" routeLength="283.70" waitingTime="0.00" waitingCount="0" stopTime="0.00" timeLoss="3.65" rerouteNo="0" devices="tripinfo_171" vType="DEFAULT_VEHTYPE" speedFactor="1.03" vaporized=""/>
    <tripinfo id="126" depart="99.00" departLane="83_4way_D07to4way_D06_0" departPos="5.10" departSpeed="0.00" departDelay="0.72" arrival="159.00" arrivalLane="32_3way_D05to4way_D04_0" arrivalPos="85.60" arrivalSpeed="14.19" duration="60.00" routeLength="280.50" waitingTime="22.00" waitingCount="1" stopTime="0.00" timeLoss="40.86" rerouteNo="0" devices="tripinfo_126" vType="DEFAULT_VEHTYPE" speedFactor="1.06" vaporized=""/>
    <tripinfo id="169" depart="132.00" departLane="6_3way_A07to3way_A06_0" departPos="5.10" departSpeed="0.00" departDelay="0.18" arrival="159.00" arrivalLane="24_4way_B06to3way_C06_0" arrivalPos="85.60" arrivalSpeed="13.13" duration="27.00" routeLength="275.13" waitingTime="0.00" waitingCount="0" stopTime="0.00" timeLoss="5.77" rerouteNo="0" devices="tripinfo_169" vType="DEFAULT_VEHTYPE" speedFactor="0.99" vaporized=""/>
    <tripinfo id="0" depart="0.00" departLane="86_4way_E07to4way_D07_0" departPos="5.10" departSpeed="0.00" departDelay="0.00" arrival="162.00" arrivalLane="32_3way_D05to4way_D04_0" arrivalPos="85.60" arrivalSpeed="12.87" duration="162.00" routeLength="375.13" waitingTime="114.00" waitingCount="1" stopTime="0.00" timeLoss="132.98" rerouteNo="0" devices="tripinfo_0" vType="DEFAULT_VEHTYPE" speedFactor="0.97" vaporized=""/>
    <tripinfo id="206" depart="161.00" departLane="36_4way_D09to3way_D10_0" departPos="5.10" departSpeed="0.00" departDelay="0.32" arrival="170.00" arrivalLane="36_4way_D09to3way_D10_0" arrivalPos="85.60" arrivalSpeed="15.50" duration="9.00" routeLength="80.50" waitingTime="0.00" waitingCount="0" stopTime="0.00" timeLoss="3.34" rerouteNo="0" devices="tripinfo_206" vType="DEFAULT_VEHTYPE" speedFactor="1.16" vaporized=""/>
    <tripinfo id="29" depart="23.00" departLane="43_3way_E10to4way_E09_0" departPos="5.10" departSpeed="0.00" departDelay="0.38" arrival="180.00" arrivalLane="91_4way_E04to4way_E03_0" arrivalPos="85.60" arrivalSpeed="15.23" duration="157.00" routeLength="680.50" waitingTime="94.00" waitingCount="1" stopTime="0.00" timeLoss="113.33" rerouteNo="0" devices="tripinfo_29" vType="DEFAULT_VEHTYPE" speedFactor="1.13" vaporized=""/>
    <tripinfo id="182" depart="142.00" departLane="93_4way_E05to4way_E04_0" departPos="5.10" departSpeed="0.00" departDelay="0.04" arrival="180.00" arrivalLane="109_4way_F03to4way_G03_0" arrivalPos="85.60" arrivalSpeed="11.14" duration="38.00" routeLength="375.13" waitingTime="0.00" waitingCount="0" stopTime="0.00" timeLoss="6.13" rerouteNo="0" devices="tripinfo_182" vType="DEFAULT_VEHTYPE" speedFactor="0.86" vaporized=""/>
    <tripinfo id="187" depart="147.00" departLane="83_4way_D07to4way_D06_0" departPos="5.10" departSpeed="0.00" departDelay="1.14" arrival="182.00" arrivalLane="23_4way_D04to3way_C04_0" arrivalPos="85.60" arrivalSpeed="12.43" duration="35.00" routeLength="380.30" waitingTime="0.00" waitingCount="0" stopTime="0.00" timeLoss="5.42" rerouteNo="0" devices="tripinfo_187" vType="DEFAULT_VEHTYPE" speedFactor="0.98" vaporized=""/>
    <tripinfo id="124" depart="97.00" departLane="101_4way_E09to4way_E08_0" departPos="5.10" departSpeed="0.00" departDelay="0.28" arrival="191.00" arrivalLane="41_3way_E02to4way_F02_0" arrivalPos="85.60" arrivalSpeed="13.39" duration="94.00" routeLength="775.13" waitingTime="22.00" waitingCount="1" stopTime="0.00" timeLoss="36.12" rerouteNo="0" devices="tripinfo_124" vType="DEFAULT_VEHTYPE" speedFactor="0.99" vaporized=""/>
    <tripinfo id="142" depart="111.00" departLane="40_3way_E02to4way_E03_0" departPos="5.10" departSpeed="0.00" departDelay="0.24" arrival="202.00" arrivalLane="78_4way_D08to4way_C08_0" arrivalPos="85.60" arrivalSpeed="13.67" duration="91.00" routeLength="775.13" waitingTime="6.00" waitingCount="1" stopTime="0.00" timeLoss="35.68" rerouteNo="0" devices="tripinfo_142" vType="DEFAULT_VEHTYPE" speedFactor="1.03" vaporized=""/>
    <tripinfo id="248" depart="194.00" departLane="90_4way_F01to4way_E01_0" departPos="5.10" departSpeed="0.00" departDelay="0.56" arrival="211.00" arrivalLane="31_4way_E01to3way_D01_0" arrivalPos="85.60" arrivalSpeed="13.97" duration="17.00" routeLength="180.50" waitingTime="0.00" waitingCount="0" stopTime="0.00" timeLoss="3.87" rerouteNo="0" devices="tripinfo_248" vType="DEFAULT_VEHTYPE" speedFactor="1.06" vaporized=""/>
    <tripinfo id="41" depart="32.00" departLane="19_3way_B10to4way_B09_0" departPos="5.10" departSpeed="0.00" departDelay="0.02" arrival="212.00" arrivalLane="30_4way_D03to3way_D01_0" arrivalPos="185.60" arrivalSpeed="11.90" duration="180.00" routeLength="1074.93" waitingTime="76.00" waitingCount="1" stopTime="0.00" timeLoss="93.72" rerouteNo="0" devices="tripinfo_41" vType="DEFAULT_VEHTYPE" speedFactor="0.92" vaporized=""/>
    <tripinfo id="12" depart="10.00" departLane="40_3way_E02to4way_E03_0" departPos="5.10" departSpeed="0.00" departDelay="0.64" arrival="213.00" arrivalLane="35_3way_E10to3way_D10_0" arrivalPos="85.60" arrivalSpeed="13.98" duration="203.00" routeLength="875.13" waitingTime="106.00" waitingCount="1" stopTime="0.00" timeLoss="141.84" rerouteNo="0" devices="tripinfo_12" vType="DEFAULT_VEHTYPE" speedFactor="1.04" vaporized=""/>
    <tripinfo id="268" depart="210.00" departLane="85_4way_D07to4way_D08_0" departPos="5.10" departSpeed="0.00" departDelay="0.96" arrival="219.00" arrivalLane="85_4way_D07to4way_D08_0" arrivalPos="85.60" arrivalSpeed="13.53" duration="9.00" routeLength="80.50" waitingTime="0.00" waitingCount="0" stopTime="0.00" timeLoss="2.98" rerouteNo="0" devices="tripinfo_268" vType="DEFAULT_VEHTYPE" speedFactor="0.99" vaporized=""/>
    <tripinfo id="192" depart="150.00" departLane="71_4way_B07to4way_C07_0" departPos="5.10" departSpeed="0.00" departDelay="0.24" arrival="223.00" arrivalLane="31_3way_D01to4way_E01_0" arrivalPos="85.60" arrivalSpeed="16.00" duration="73.00" routeLength="874.93" waitingTime="0.00" waitingCount="0" stopTime="0.00" timeLoss="16.71" rerouteNo="0" devices="tripinfo_192" vType="DEFAULT_VEHTYPE" speedFactor="1.16" vaporized=""/>
    <tripinfo id="254" depart="199.00" departLane="99_4way_E07to4way_E08_0" departPos="5.10" departSpeed="0.00" departDelay="0.88" arrival="227.00" arrivalLane="89_4way_E09to4way_D09_0" arrivalPos="85.60" arrivalSpeed="11.56" duration="28.00" routeLength="275.13" waitingTime="0.00" waitingCount="0" stopTime="0.00" timeLoss="5.90" rerouteNo="0" devices="tripinfo_254" vType="DEFAULT_VEHTYPE" speedFactor="0.92" vaporized=""/>
    <tripinfo id="278" depart="217.00" departLane="118_4way_F09to4way_F08_0" departPos="5.10" departSpeed="0.00" departDelay="0.16" arrival="239.00" arrivalLane="119_4way_F08to4way_G08_0" arrivalPos="85.60" arrivalSpeed="10.49" duration="22.00" routeLength="175.13" waitingTime="0.00" waitingCount="0" stopTime="0.00" timeLoss="4.59" rerouteNo="0" devices="tripinfo_278" vType="DEFAULT_VEHTYPE" speedFactor="0.79" vaporized=""/>