<?xml version="1.0" encoding="UTF-8"?>

<!-- generated on 2023-07-27 23:04:11 by Eclipse SUMO sumo Version 1.12.0
<configuration xmlns:xsi="http://www.w3.org/2001/XMLSchema-instance" xsi:noNamespaceSchemaLocation="http://sumo.dlr.de/xsd/sumoConfiguration.xsd">

    <input>
        <net-file value="../../data_generation/sq.net.xml"/>
        <route-files value="../../data_generation/sq.rou.xml"/>
    </input>

    <output>
        <tripinfo-output value="tripinfo.xml"/>
        <statistic-output value="statistic.xml"/>
    </output>

    <time>
        <begin value="0"/>
        <end value="3600"/>
    </time>

    <processing>
        <time-to-teleport value="-1"/>
    </processing>

    <traci_server>
        <remote-port value="37145"/>
    </traci_server>

    <random_number>
        <seed value="1395"/>
    </random_number>

    <gui_only>
        <gui-settings-file value="../../data_generation/view_HY_0402.xml"/>
    </gui_only>

</configuration>
-->

<tripinfos xmlns:xsi="http://www.w3.org/2001/XMLSchema-instance" xsi:noNamespaceSchemaLocation="http://sumo.dlr.de/xsd/tripinfo_file.xsd">
    <tripinfo id="21" depart="5.00" departLane="24_3way_31to3way_32_0" departPos="5.10" departSpeed="0.00" departDelay="0.00" arrival="15.00" arrivalLane="24_3way_31to3way_32_0" arrivalPos="85.60" arrivalSpeed="10.84" duration="10.00" routeLength="80.50" waitingTime="0.00" waitingCount="0" stopTime="0.00" timeLoss="2.61" rerouteNo="0" devices="tripinfo_21" vType="DEFAULT_VEHTYPE" speedFactor="0.82" vaporized=""/>
    <tripinfo id="24" depart="6.00" departLane="10_3way_17to3way_23_0" departPos="5.10" departSpeed="0.00" departDelay="0.29" arrival="15.00" arrivalLane="10_3way_17to3way_23_0" arrivalPos="85.60" arrivalSpeed="13.44" duration="9.00" routeLength="80.50" waitingTime="0.00" waitingCount="0" stopTime="0.00" timeLoss="2.87" rerouteNo="0" devices="tripinfo_24" vType="DEFAULT_VEHTYPE" speedFactor="0.97" vaporized=""/>
    <tripinfo id="1" depart="1.00" departLane="36_4way_13to4way_19_0" departPos="5.10" departSpeed="0.00" departDelay="0.76" arrival="17.00" arrivalLane="46_4way_19to4way_25_0" arrivalPos="85.60" arrivalSpeed="13.66" duration="16.00" routeLength="180.50" waitingTime="0.00" waitingCount="0" stopTime="0.00" timeLoss="3.40" rerouteNo="0" devices="tripinfo_1" vType="DEFAULT_VEHTYPE" speedFactor="1.04" vaporized=""/>
    <tripinfo id="0" depart="0.00" departLane="39_4way_20to4way_14_0" departPos="5.10" departSpeed="0.00" departDelay="0.00" arrival="18.00" arrivalLane="35_4way_14to4way_13_0" arrivalPos="85.60" arrivalSpeed="13.68" duration="18.00" routeLength="175.13" waitingTime="0.00" waitingCount="0" stopTime="0.00" timeLoss="4.86" rerouteNo="0" devices="tripinfo_0" vType="DEFAULT_VEHTYPE" speedFactor="1.00" vaporized=""/>
    <tripinfo id="20" depart="5.00" departLane="4_3way_11to3way_17_0" departPos="5.10" departSpeed="0.00" departDelay="0.24" arrival="24.00" arrivalLane="10_3way_17to3way_23_0" arrivalPos="85.60" arrivalSpeed="12.00" duration="19.00" routeLength="180.50" waitingTime="0.00" waitingCount="0" stopTime="0.00" timeLoss="3.76" rerouteNo="0" devices="tripinfo_20" vType="DEFAULT_VEHTYPE" speedFactor="0.89" vaporized=""/>
    <tripinfo id="8" depart="2.00" departLane="50_4way_27to4way_21_0" departPos="5.10" departSpeed="0.00" departDelay="0.10" arrival="27.00" arrivalLane="43_4way_15to4way_9_0" arrivalPos="85.60" arrivalSpeed="12.49" duration="25.00" routeLength="280.50" waitingTime="0.00" waitingCount="0" stopTime="0.00" timeLoss="3.78" rerouteNo="0" devices="tripinfo_8" vType="DEFAULT_VEHTYPE" speedFactor="0.98" vaporized=""/>
    <tripinfo id="76" depart="19.00" departLane="53_4way_27to4way_26_0" departPos="5.10" departSpeed="0.00" departDelay="0.91" arrival="29.00" arrivalLane="53_4way_27to4way_26_0" arrivalPos="85.60" arrivalSpeed="11.97" duration="10.00" routeLength="80.50" waitingTime="0.00" waitingCount="0" stopTime="0.00" timeLoss="3.03" rerouteNo="0" devices="tripinfo_76" vType="DEFAULT_VEHTYPE" speedFactor="0.90" vaporized=""/>
    <tripinfo id="18" depart="5.00" departLane="12_3way_18to3way_24_0" departPos="5.10" departSpeed="0.00" departDelay="0.72" arrival="30.00" arrivalLane="18_3way_24to3way_31_0" arrivalPos="182.40" arrivalSpeed="12.88" duration="25.00" routeLength="277.30" waitingTime="0.00" waitingCount="0" stopTime="0.00" timeLoss="3.61" rerouteNo="0" devices="tripinfo_18" vType="DEFAULT_VEHTYPE" speedFactor="0.96" vaporized=""/>
    <tripinfo id="88" depart="21.00" departLane="36_4way_19to4way_13_0" departPos="5.10" departSpeed="0.00" departDelay="0.06" arrival="31.00" arrivalLane="36_4way_19to4way_13_0" arrivalPos="85.60" arrivalSpeed="14.34" duration="10.00" routeLength="80.50" waitingTime="0.00" waitingCount="0" stopTime="0.00" timeLoss="3.58" rerouteNo="0" devices="tripinfo_88" vType="DEFAULT_VEHTYPE" speedFactor="1.06" vaporized=""/>
    <tripinfo id="19" depart="5.00" departLane="15_3way_2to4way_8_0" departPos="5.10" departSpeed="0.00" departDelay="0.48" arrival="32.00" arrivalLane="39_4way_14to4way_20_0" arrivalPos="85.60" arrivalSpeed="12.03" duration="27.00" routeLength="280.50" waitingTime="0.00" waitingCount="0" stopTime="0.00" timeLoss="4.18" rerouteNo="0" devices="tripinfo_19" vType="DEFAULT_VEHTYPE" speedFactor="0.89" vaporized=""/>
    <tripinfo id="68" depart="17.00" departLane="33_4way_16to4way_10_0" departPos="5.10" departSpeed="0.00" departDelay="0.82" arrival="33.00" arrivalLane="31_4way_10to3way_4_0" arrivalPos="85.60" arrivalSpeed="14.56" duration="16.00" routeLength="180.50" waitingTime="0.00" waitingCount="0" stopTime="0.00" timeLoss="3.61" rerouteNo="0" devices="tripinfo_68" vType="DEFAULT_VEHTYPE" speedFactor="1.09" vaporized=""/>
    <tripinfo id="42" depart="10.00" departLane="39_4way_14to4way_20_0" departPos="5.10" departSpeed="0.00" departDelay="0.00" arrival="34.00" arrivalLane="27_4way_26to3way_32_0" arrivalPos="85.60" arrivalSpeed="13.44" duration="24.00" routeLength="280.50" waitingTime="0.00" waitingCount="0" stopTime="0.00" timeLoss="3.66" rerouteNo="0" devices="tripinfo_42" vType="DEFAULT_VEHTYPE" speedFactor="0.99" vaporized=""/>
    <tripinfo id="45" depart="11.00" departLane="3_3way_1to4way_7_0" departPos="5.10" departSpeed="0.00" departDelay="0.29" arrival="35.00" arrivalLane="36_4way_13to4way_19_0" arrivalPos="85.60" arrivalSpeed="13.18" duration="24.00" routeLength="280.50" waitingTime="0.00" waitingCount="0" stopTime="0.00" timeLoss="3.43" rerouteNo="0" devices="tripinfo_45" vType="DEFAULT_VEHTYPE" speedFactor="1.00" vaporized=""/>
    <tripinfo id="27" depart="9.00" departLane="31_3way_4to4way_10_0" departPos="5.10" departSpeed="0.00" departDelay="2.57" arrival="36.00" arrivalLane="11_4way_16to3way_17_0" arrivalPos="85.60" arrivalSpeed="13.48" duration="27.00" routeLength="275.13" waitingTime="0.00" waitingCount="0" stopTime="0.00" timeLoss="6.55" rerouteNo="0" devices="tripinfo_27" vType="DEFAULT_VEHTYPE" speedFactor="1.03" vaporized=""/>
    <tripinfo id="111" depart="27.00" departLane="3_3way_1to4way_7_0" departPos="5.10" departSpeed="0.00" departDelay="0.58" arrival="37.00" arrivalLane="3_3way_1to4way_7_0" arrivalPos="85.60" arrivalSpeed="10.65" duration="10.00" routeLength="80.50" waitingTime="0.00" waitingCount="0" stopTime="0.00" timeLoss="2.55" rerouteNo="0" devices="tripinfo_111" vType="DEFAULT_VEHTYPE" speedFactor="0.84" vaporized=""/>
    <tripinfo id="16" depart="4.00" departLane="46_4way_25to4way_19_0" departPos="5.10" departSpeed="0.00" departDelay="0.19" arrival="39.00" arrivalLane="3_4way_7to3way_1_0" arrivalPos="85.60" arrivalSpeed="12.38" duration="35.00" routeLength="380.50" waitingTime="0.00" waitingCount="0" stopTime="0.00" timeLoss="4.40" rerouteNo="0" devices="tripinfo_16" vType="DEFAULT_VEHTYPE" speedFactor="0.90" vaporized=""/>
    <tripinfo id="123" depart="30.00" departLane="36_4way_19to4way_13_0" departPos="5.10" departSpeed="0.00" departDelay="0.73" arrival="39.00" arrivalLane="36_4way_19to4way_13_0" arrivalPos="85.60" arrivalSpeed="13.53" duration="9.00" routeLength="80.50" waitingTime="0.00" waitingCount="0" stopTime="0.00" timeLoss="3.44" rerouteNo="0" devices="tripinfo_123" vType="DEFAULT_VEHTYPE" speedFactor="1.06" vaporized=""/>
    <tripinfo id="30" depart="8.00" departLane="22_3way_4to3way_3_0" departPos="5.10" departSpeed="0.00" departDelay="0.86" arrival="40.00" arrivalLane="42_4way_15to4way_21_0" arrivalPos="85.60" arrivalSpeed="14.55" duration="32.00" routeLength="375.13" waitingTime="0.00" waitingCount="0" stopTime="0.00" timeLoss="5.65" rerouteNo="0" devices="tripinfo_30" vType="DEFAULT_VEHTYPE" speedFactor="1.05" vaporized=""/>
    <tripinfo id="97" depart="24.00" departLane="14_3way_3to3way_2_0" departPos="5.10" departSpeed="0.00" departDelay="0.91" arrival="40.00" arrivalLane="1_3way_2to3way_1_0" arrivalPos="85.60" arrivalSpeed="14.25" duration="16.00" routeLength="180.50" waitingTime="0.00" waitingCount="0" stopTime="0.00" timeLoss="3.70" rerouteNo="0" devices="tripinfo_97" vType="DEFAULT_VEHTYPE" speedFactor="1.06" vaporized=""/>
    <tripinfo id="127" depart="31.00" departLane="38_4way_15to4way_14_0" departPos="5.10" departSpeed="0.00" departDelay="0.77" arrival="40.00" arrivalLane="38_4way_15to4way_14_0" arrivalPos="85.60" arrivalSpeed="13.65" duration="9.00" routeLength="80.50" waitingTime="0.00" waitingCount="0" stopTime="0.00" timeLoss="3.11" rerouteNo="0" devices="tripinfo_127" vType="DEFAULT_VEHTYPE" speedFactor="1.00" vaporized=""/>
    <tripinfo id="37" depart="9.00" departLane="12_3way_18to3way_24_0" departPos="5.10" departSpeed="0.00" departDelay="0.19" arrival="41.00" arrivalLane="24_3way_31to3way_32_0" arrivalPos="85.60" arrivalSpeed="13.33" duration="32.00" routeLength="377.30" waitingTime="0.00" waitingCount="0" stopTime="0.00" timeLoss="4.10" rerouteNo="0" devices="tripinfo_37" vType="DEFAULT_VEHTYPE" speedFactor="0.99" vaporized=""/>
    <tripinfo id="23" depart="6.00" departLane="31_3way_4to4way_10_0" departPos="5.10" departSpeed="0.00" departDelay="0.53" arrival="42.00" arrivalLane="51_4way_22to4way_28_0" arrivalPos="85.60" arrivalSpeed="10.88" duration="36.00" routeLength="380.50" waitingTime="0.00" waitingCount="0" stopTime="0.00" timeLoss="4.35" rerouteNo="0" devices="tripinfo_23" vType="DEFAULT_VEHTYPE" speedFactor="0.87" vaporized=""/>
    <tripinfo id="34" depart="9.00" departLane="15_3way_2to4way_8_0" departPos="5.10" departSpeed="0.00" departDelay="0.91" arrival="42.00" arrivalLane="48_4way_20to4way_26_0" arrivalPos="85.60" arrivalSpeed="12.72" duration="33.00" routeLength="380.50" waitingTime="0.00" waitingCount="0" stopTime="0.00" timeLoss="3.89" rerouteNo="0" devices="tripinfo_34" vType="DEFAULT_VEHTYPE" speedFactor="0.96" vaporized=""/>
    <tripinfo id="80" depart="20.00" departLane="1_3way_2to3way_1_0" departPos="5.10" departSpeed="0.00" departDelay="0.96" arrival="42.00" arrivalLane="3_3way_1to4way_7_0" arrivalPos="85.60" arrivalSpeed="10.72" duration="22.00" routeLength="175.13" waitingTime="0.00" waitingCount="0" stopTime="0.00" timeLoss="4.20" rerouteNo="0" devices="tripinfo_80" vType="DEFAULT_VEHTYPE" speedFactor="0.78" vaporized=""/>
    <tripinfo id="89" depart="22.00" departLane="29_3way_33to4way_27_0" departPos="5.10" departSpeed="0.00" departDelay="0.82" arrival="42.00" arrivalLane="53_4way_27to4way_26_0" arrivalPos="85.60" arrivalSpeed="12.13" duration="20.00" routeLength="175.13" waitingTime="0.00" waitingCount="0" stopTime="0.00" timeLoss="5.66" rerouteNo="0" devices="tripinfo_89" vType="DEFAULT_VEHTYPE" speedFactor="0.93" vaporized=""/>
    <tripinfo id="31" depart="11.00" departLane="22_3way_4to3way_3_0" departPos="5.10" departSpeed="0.00" departDelay="3.62" arrival="43.00" arrivalLane="42_4way_15to4way_21_0" arrivalPos="85.60" arrivalSpeed="14.24" duration="32.00" routeLength="375.13" waitingTime="0.00" waitingCount="0" stopTime="0.00" timeLoss="6.63" rerouteNo="0" devices="tripinfo_31" vType="DEFAULT_VEHTYPE" speedFactor="1.11" vaporized=""/>
    <tripinfo id="84" depart="20.00" departLane="15_3way_2to4way_8_0" departPos="5.10" departSpeed="0.00" departDelay="0.01" arrival="43.00" arrivalLane="39_4way_14to4way_20_0" arrivalPos="85.60" arrivalSpeed="13.57" duration="23.00" routeLength="280.50" waitingTime="0.00" waitingCount="0" stopTime="0.00" timeLoss="3.94" rerouteNo="0" devices="tripinfo_84" vType="DEFAULT_VEHTYPE" speedFactor="1.06" vaporized=""/>
    <tripinfo id="93" depart="26.00" departLane="20_3way_34to3way_29_0" departPos="5.10" departSpeed="0.00" departDelay="3.87" arrival="43.00" arrivalLane="20_3way_34to3way_29_0" arrivalPos="182.40" arrivalSpeed="13.58" duration="17.00" routeLength="177.30" waitingTime="0.00" waitingCount="0" stopTime="0.00" timeLoss="3.67" rerouteNo="0" devices="tripinfo_93" vType="DEFAULT_VEHTYPE" speedFactor="1.00" vaporized=""/>
    <tripinfo id="122" depart="30.00" departLane="23_3way_3to4way_9_0" departPos="5.10" departSpeed="0.00" departDelay="0.96" arrival="48.00" arrivalLane="34_4way_9to4way_10_0" arrivalPos="85.60" arrivalSpeed="15.55" duration="18.00" routeLength="175.13" waitingTime="0.00" waitingCount="0" stopTime="0.00" timeLoss="6.58" rerouteNo="0" devices="tripinfo_122" vType="DEFAULT_VEHTYPE" speedFactor="1.20" vaporized=""/>
    <tripinfo id="157" depart="38.00" departLane="39_4way_20to4way_14_0" departPos="5.10" departSpeed="0.00" departDelay="0.63" arrival="48.00" arrivalLane="39_4way_20to4way_14_0" arrivalPos="85.60" arrivalSpeed="11.88" duration="10.00" routeLength="80.50" waitingTime="0.00" waitingCount="0" stopTime="0.00" timeLoss="3.47" rerouteNo="0" devices="tripinfo_157" vType="DEFAULT_VEHTYPE" speedFactor="0.94" vaporized=""/>
    <tripinfo id="168" depart="40.00" departLane="15_3way_2to4way_8_0" departPos="5.10" departSpeed="0.00" departDelay="0.02" arrival="50.00" arrivalLane="15_3way_2to4way_8_0" arrivalPos="85.60" arrivalSpeed="14.25" duration="10.00" routeLength="80.50" waitingTime="0.00" waitingCount="0" stopTime="0.00" timeLoss="3.83" rerouteNo="0" devices="tripinfo_168" vType="DEFAULT_VEHTYPE" speedFactor="1.10" vaporized=""/>
    <tripinfo id="170" depart="41.00" departLane="35_4way_14to4way_13_0" departPos="5.10" departSpeed="0.00" departDelay="0.54" arrival="50.00" arrivalLane="35_4way_14to4way_13_0" arrivalPos="85.60" arrivalSpeed="13.19" duration="9.00" routeLength="80.50" waitingTime="0.00" waitingCount="0" stopTime="0.00" timeLoss="2.95" rerouteNo="0" devices="tripinfo_170" vType="DEFAULT_VEHTYPE" speedFactor="1.00" vaporized=""/>
    <tripinfo id="103" depart="26.00" departLane="18_3way_24to3way_31_0" departPos="5.10" departSpeed="0.00" departDelay="1.49" arrival="51.00" arrivalLane="24_3way_31to3way_32_0" arrivalPos="85.60" arrivalSpeed="14.32" duration="25.00" routeLength="277.30" waitingTime="0.00" waitingCount="0" stopTime="0.00" timeLoss="7.04" rerouteNo="0" devices="tripinfo_103" vType="DEFAULT_VEHTYPE" speedFactor="1.15" vaporized=""/>
    <tripinfo id="144" depart="41.00" departLane="51_4way_22to4way_28_0" departPos="5.10" departSpeed="0.00" departDelay="6.73" arrival="51.00" arrivalLane="51_4way_22to4way_28_0" arrivalPos="85.60" arrivalSpeed="8.37" duration="10.00" routeLength="80.50" waitingTime="0.00" waitingCount="0" stopTime="0.00" timeLoss="4.52" rerouteNo="0" devices="tripinfo_144" vType="DEFAULT_VEHTYPE" speedFactor="1.07" vaporized=""/>
    <tripinfo id="110" depart="27.00" departLane="16_3way_23to3way_29_0" departPos="5.10" departSpeed="0.00" departDelay="0.82" arrival="53.00" arrivalLane="20_3way_29to3way_34_0" arrivalPos="188.80" arrivalSpeed="14.14" duration="26.00" routeLength="283.70" waitingTime="0.00" waitingCount="0" stopTime="0.00" timeLoss="5.92" rerouteNo="0" devices="tripinfo_110" vType="DEFAULT_VEHTYPE" speedFactor="1.05" vaporized=""/>
    <tripinfo id="130" depart="31.00" departLane="33_4way_10to4way_16_0" departPos="5.10" departSpeed="0.00" departDelay="0.06" arrival="56.00" arrivalLane="51_4way_22to4way_28_0" arrivalPos="85.60" arrivalSpeed="13.10" duration="25.00" routeLength="280.50" waitingTime="0.00" waitingCount="0" stopTime="0.00" timeLoss="3.82" rerouteNo="0" devices="tripinfo_130" vType="DEFAULT_VEHTYPE" speedFactor="0.98" vaporized=""/>
    <tripinfo id="29" depart="8.00" departLane="24_3way_31to3way_32_0" departPos="5.10" departSpeed="0.00" departDelay="1.10" arrival="57.00" arrivalLane="16_3way_29to3way_23_0" arrivalPos="85.60" arrivalSpeed="13.04" duration="49.00" routeLength="577.30" waitingTime="0.00" waitingCount="0" stopTime="0.00" timeLoss="4.69" rerouteNo="0" devices="tripinfo_29" vType="DEFAULT_VEHTYPE" speedFactor="0.95" vaporized=""/>
    <tripinfo id="113" depart="27.00" departLane="7_3way_12to3way_18_0" departPos="5.10" departSpeed="0.00" departDelay="0.11" arrival="57.00" arrivalLane="18_3way_24to3way_31_0" arrivalPos="182.40" arrivalSpeed="14.24" duration="30.00" routeLength="377.30" waitingTime="0.00" waitingCount="0" stopTime="0.00" timeLoss="5.01" rerouteNo="0" devices="tripinfo_113" vType="DEFAULT_VEHTYPE" speedFactor="1.10" vaporized=""/>
    <tripinfo id="133" depart="38.00" departLane="42_4way_15to4way_21_0" departPos="5.10" departSpeed="0.00" departDelay="6.35" arrival="57.00" arrivalLane="49_4way_21to4way_22_0" arrivalPos="85.60" arrivalSpeed="13.10" duration="19.00" routeLength="175.13" waitingTime="0.00" waitingCount="0" stopTime="0.00" timeLoss="5.93" rerouteNo="0" devices="tripinfo_133" vType="DEFAULT_VEHTYPE" speedFactor="1.01" vaporized=""/>
    <tripinfo id="78" depart="19.00" departLane="25_3way_31to4way_25_0" departPos="5.10" departSpeed="0.00" departDelay="0.44" arrival="58.00" arrivalLane="3_4way_7to3way_1_0" arrivalPos="85.60" arrivalSpeed="13.69" duration="39.00" routeLength="480.50" waitingTime="0.00" waitingCount="0" stopTime="0.00" timeLoss="5.01" rerouteNo="0" devices="tripinfo_78" vType="DEFAULT_VEHTYPE" speedFactor="1.03" vaporized=""/>
    <tripinfo id="124" depart="33.00" departLane="28_3way_33to3way_34_0" departPos="5.10" departSpeed="0.00" departDelay="3.49" arrival="59.00" arrivalLane="51_4way_28to4way_22_0" arrivalPos="85.60" arrivalSpeed="14.94" duration="26.00" routeLength="275.13" waitingTime="0.00" waitingCount="0" stopTime="0.00" timeLoss="6.46" rerouteNo="0" devices="tripinfo_124" vType="DEFAULT_VEHTYPE" speedFactor="1.11" vaporized=""/>
    <tripinfo id="165" depart="42.00" departLane="23_3way_3to4way_9_0" departPos="5.10" departSpeed="0.00" departDelay="2.73" arrival="59.00" arrivalLane="43_4way_9to4way_15_0" arrivalPos="85.60" arrivalSpeed="14.87" duration="17.00" routeLength="180.50" waitingTime="0.00" waitingCount="0" stopTime="0.00" timeLoss="3.93" rerouteNo="0" devices="tripinfo_165" vType="DEFAULT_VEHTYPE" speedFactor="1.07" vaporized=""/>
    <tripinfo id="129" depart="31.00" departLane="2_3way_6to3way_1_0" departPos="5.10" departSpeed="0.00" departDelay="0.30" arrival="60.00" arrivalLane="14_3way_2to3way_3_0" arrivalPos="85.60" arrivalSpeed="14.57" duration="29.00" routeLength="383.70" waitingTime="0.00" waitingCount="0" stopTime="0.00" timeLoss="4.59" rerouteNo="0" devices="tripinfo_129" vType="DEFAULT_VEHTYPE" speedFactor="1.14" vaporized=""/>
    <tripinfo id="132" depart="38.00" departLane="51_4way_22to4way_28_0" departPos="5.10" departSpeed="0.00" departDelay="6.58" arrival="60.00" arrivalLane="21_4way_28to3way_29_0" arrivalPos="85.60" arrivalSpeed="11.29" duration="22.00" routeLength="175.13" waitingTime="0.00" waitingCount="0" stopTime="0.00" timeLoss="5.57" rerouteNo="0" devices="tripinfo_132" vType="DEFAULT_VEHTYPE" speedFactor="0.86" vaporized=""/>
    <tripinfo id="178" depart="43.00" departLane="27_3way_32to4way_26_0" departPos="5.10" departSpeed="0.00" departDelay="0.64" arrival="60.00" arrivalLane="48_4way_26to4way_20_0" arrivalPos="85.60" arrivalSpeed="14.01" duration="17.00" routeLength="180.50" waitingTime="0.00" waitingCount="0" stopTime="0.00" timeLoss="4.24" rerouteNo="0" devices="tripinfo_178" vType="DEFAULT_VEHTYPE" speedFactor="1.07" vaporized=""/>
    <tripinfo id="44" depart="11.00" departLane="10_3way_17to3way_23_0" departPos="5.10" departSpeed="0.00" departDelay="0.53" arrival="61.00" arrivalLane="28_3way_34to3way_33_0" arrivalPos="85.60" arrivalSpeed="10.49" duration="50.00" routeLength="483.70" waitingTime="0.00" waitingCount="0" stopTime="0.00" timeLoss="4.88" rerouteNo="0" devices="tripinfo_44" vType="DEFAULT_VEHTYPE" speedFactor="0.78" vaporized=""/>
    <tripinfo id="62" depart="15.00" departLane="28_3way_33to3way_34_0" departPos="5.10" departSpeed="0.00" departDelay="0.24" arrival="61.00" arrivalLane="4_3way_17to3way_11_0" arrivalPos="85.60" arrivalSpeed="13.95" duration="46.00" routeLength="577.30" waitingTime="0.00" waitingCount="0" stopTime="0.00" timeLoss="5.54" rerouteNo="0" devices="tripinfo_62" vType="DEFAULT_VEHTYPE" speedFactor="1.05" vaporized=""/>
    <tripinfo id="180" depart="44.00" departLane="10_3way_17to3way_23_0" departPos="5.10" departSpeed="0.00" departDelay="1.16" arrival="61.00" arrivalLane="16_3way_23to3way_29_0" arrivalPos="85.60" arrivalSpeed="14.08" duration="17.00" routeLength="180.50" waitingTime="0.00" waitingCount="0" stopTime="0.00" timeLoss="3.65" rerouteNo="0" devices="tripinfo_180" vType="DEFAULT_VEHTYPE" speedFactor="1.04" vaporized=""/>
    <tripinfo id="173" depart="42.00" departLane="33_4way_10to4way_16_0" departPos="5.10" departSpeed="0.00" departDelay="0.83" arrival="62.00" arrivalLane="11_4way_16to3way_17_0" arrivalPos="85.60" arrivalSpeed="11.35" duration="20.00" routeLength="175.13" waitingTime="0.00" waitingCount="0" stopTime="0.00" timeLoss="4.43" rerouteNo="0" devices="tripinfo_173" vType="DEFAULT_VEHTYPE" speedFactor="0.90" vaporized=""/>
    <tripinfo id="199" depart="48.00" departLane="20_3way_34to3way_29_0" departPos="5.10" departSpeed="0.00" departDelay="0.64" arrival="64.00" arrivalLane="20_3way_34to3way_29_0" arrivalPos="182.40" arrivalSpeed="16.19" duration="16.00" routeLength="177.30" waitingTime="0.00" waitingCount="0" stopTime="0.00" timeLoss="4.50" rerouteNo="0" devices="tripinfo_199" vType="DEFAULT_VEHTYPE" speedFactor="1.20" vaporized=""/>
    <tripinfo id="161" depart="39.00" departLane="24_3way_31to3way_32_0" departPos="5.10" departSpeed="0.00" departDelay="0.68" arrival="65.00" arrivalLane="28_3way_33to3way_34_0" arrivalPos="85.60" arrivalSpeed="12.65" duration="26.00" routeLength="280.50" waitingTime="0.00" waitingCount="0" stopTime="0.00" timeLoss="4.23" rerouteNo="0" devices="tripinfo_161" vType="DEFAULT_VEHTYPE" speedFactor="0.95" vaporized=""/>
    <tripinfo id="9" depart="3.00" departLane="42_4way_15to4way_21_0" departPos="5.10" departSpeed="0.00" departDelay="0.86" arrival="70.00" arrivalLane="54_4way_27to4way_28_0" arrivalPos="85.60" arrivalSpeed="6.62" duration="67.00" routeLength="275.13" waitingTime="32.00" waitingCount="1" stopTime="0.00" timeLoss="43.92" rerouteNo="0" devices="tripinfo_9" vType="DEFAULT_VEHTYPE" speedFactor="0.91" vaporized=""/>
    <tripinfo id="22" depart="6.00" departLane="7_3way_12to3way_18_0" departPos="5.10" departSpeed="0.00" departDelay="0.76" arrival="70.00" arrivalLane="13_3way_18to4way_19_0" arrivalPos="85.60" arrivalSpeed="5.73" duration="64.00" routeLength="175.13" waitingTime="41.00" waitingCount="1" stopTime="0.00" timeLoss="50.73" rerouteNo="0" devices="tripinfo_22" vType="DEFAULT_VEHTYPE" speedFactor="1.00" vaporized=""/>
    <tripinfo id="52" depart="13.00" departLane="29_3way_33to4way_27_0" departPos="5.10" departSpeed="0.00" departDelay="0.62" arrival="70.00" arrivalLane="47_4way_21to4way_20_0" arrivalPos="85.60" arrivalSpeed="5.10" duration="57.00" routeLength="275.13" waitingTime="27.00" waitingCount="1" stopTime="0.00" timeLoss="37.30" rerouteNo="0" devices="tripinfo_52" vType="DEFAULT_VEHTYPE" speedFactor="1.03" vaporized=""/>
    <tripinfo id="58" depart="14.00" departLane="46_4way_25to4way_19_0" departPos="5.10" departSpeed="0.00" departDelay="0.20" arrival="70.00" arrivalLane="13_4way_19to3way_18_0" arrivalPos="85.60" arrivalSpeed="6.17" duration="56.00" routeLength="175.13" waitingTime="32.00" waitingCount="1" stopTime="0.00" timeLoss="41.21" rerouteNo="0" devices="tripinfo_58" vType="DEFAULT_VEHTYPE" speedFactor="0.93" vaporized=""/>
    <tripinfo id="60" depart="19.00" departLane="29_3way_33to4way_27_0" departPos="5.10" departSpeed="0.00" departDelay="4.72" arrival="70.00" arrivalLane="38_4way_15to4way_14_0" arrivalPos="85.60" arrivalSpeed="4.83" duration="51.00" routeLength="375.13" waitingTime="13.00" waitingCount="1" stopTime="0.00" timeLoss="25.90" rerouteNo="0" devices="tripinfo_60" vType="DEFAULT_VEHTYPE" speedFactor="1.12" vaporized=""/>
    <tripinfo id="135" depart="33.00" departLane="29_4way_27to3way_33_0" departPos="5.10" departSpeed="0.00" departDelay="0.87" arrival="70.00" arrivalLane="29_4way_27to3way_33_0" arrivalPos="85.60" arrivalSpeed="4.51" duration="37.00" routeLength="80.50" waitingTime="23.00" waitingCount="1" stopTime="0.00" timeLoss="31.68" rerouteNo="0" devices="tripinfo_135" vType="DEFAULT_VEHTYPE" speedFactor="1.09" vaporized=""/>
    <tripinfo id="145" depart="37.00" departLane="43_4way_9to4way_15_0" departPos="5.10" departSpeed="0.00" departDelay="2.49" arrival="70.00" arrivalLane="41_4way_15to4way_16_0" arrivalPos="85.60" arrivalSpeed="5.42" duration="33.00" routeLength="175.13" waitingTime="9.00" waitingCount="1" stopTime="0.00" timeLoss="19.39" rerouteNo="0" devices="tripinfo_145" vType="DEFAULT_VEHTYPE" speedFactor="0.96" vaporized=""/>
    <tripinfo id="160" depart="41.00" departLane="39_4way_20to4way_14_0" departPos="5.10" departSpeed="0.00" departDelay="2.92" arrival="70.00" arrivalLane="15_4way_8to3way_2_0" arrivalPos="85.60" arrivalSpeed="8.35" duration="29.00" routeLength="280.50" waitingTime="0.00" waitingCount="0" stopTime="0.00" timeLoss="5.54" rerouteNo="0" devices="tripinfo_160" vType="DEFAULT_VEHTYPE" speedFactor="0.88" vaporized=""/>
    <tripinfo id="174" depart="42.00" departLane="9_3way_12to4way_13_0" departPos="5.10" departSpeed="0.00" departDelay="0.59" arrival="70.00" arrivalLane="9_3way_12to4way_13_0" arrivalPos="85.60" arrivalSpeed="5.39" duration="28.00" routeLength="80.50" waitingTime="13.00" waitingCount="1" stopTime="0.00" timeLoss="21.72" rerouteNo="0" devices="tripinfo_174" vType="DEFAULT_VEHTYPE" speedFactor="0.94" vaporized=""/>
    <tripinfo id="179" depart="43.00" departLane="56_4way_8to4way_9_0" departPos="5.10" departSpeed="0.00" departDelay="0.40" arrival="70.00" arrivalLane="56_4way_8to4way_9_0" arrivalPos="85.60" arrivalSpeed="6.22" duration="27.00" routeLength="80.50" waitingTime="12.00" waitingCount="1" stopTime="0.00" timeLoss="20.73" rerouteNo="0" devices="tripinfo_179" vType="DEFAULT_VEHTYPE" speedFactor="0.97" vaporized=""/>
    <tripinfo id="182" depart="44.00" departLane="36_4way_19to4way_13_0" departPos="5.10" departSpeed="0.00" departDelay="0.68" arrival="70.00" arrivalLane="9_4way_13to3way_12_0" arrivalPos="85.60" arrivalSpeed="5.07" duration="26.00" routeLength="175.13" waitingTime="0.00" waitingCount="0" stopTime="0.00" timeLoss="11.28" rerouteNo="0" devices="tripinfo_182" vType="DEFAULT_VEHTYPE" speedFactor="0.90" vaporized=""/>
    <tripinfo id="105" depart="30.00" departLane="50_4way_27to4way_21_0" departPos="5.10" departSpeed="0.00" departDelay="5.01" arrival="71.00" arrivalLane="56_4way_9to4way_8_0" arrivalPos="85.60" arrivalSpeed="6.39" duration="41.00" routeLength="375.13" waitingTime="0.00" waitingCount="0" stopTime="0.00" timeLoss="11.73" rerouteNo="0" devices="tripinfo_105" vType="DEFAULT_VEHTYPE" speedFactor="0.95" vaporized=""/>
    <tripinfo id="77" depart="26.00" departLane="54_4way_27to4way_28_0" departPos="5.10" departSpeed="0.00" departDelay="7.67" arrival="72.00" arrivalLane="54_4way_27to4way_28_0" arrivalPos="85.60" arrivalSpeed="7.04" duration="46.00" routeLength="80.50" waitingTime="32.00" waitingCount="1" stopTime="0.00" timeLoss="40.10" rerouteNo="0" devices="tripinfo_77" vType="DEFAULT_VEHTYPE" speedFactor="0.99" vaporized=""/>
    <tripinfo id="61" depart="16.00" departLane="12_3way_18to3way_24_0" departPos="5.10" departSpeed="0.00" departDelay="1.48" arrival="73.00" arrivalLane="19_3way_24to4way_25_0" arrivalPos="85.60" arrivalSpeed="7.99" duration="57.00" routeLength="175.13" waitingTime="32.00" waitingCount="1" stopTime="0.00" timeLoss="43.52" rerouteNo="0" devices="tripinfo_61" vType="DEFAULT_VEHTYPE" speedFactor="1.01" vaporized=""/>
    <tripinfo id="134" depart="33.00" departLane="50_4way_27to4way_21_0" departPos="5.10" departSpeed="0.00" departDelay="1.11" arrival="73.00" arrivalLane="56_4way_9to4way_8_0" arrivalPos="85.60" arrivalSpeed="8.26" duration="40.00" routeLength="375.13" waitingTime="0.00" waitingCount="0" stopTime="0.00" timeLoss="11.58" rerouteNo="0" devices="tripinfo_134" vType="DEFAULT_VEHTYPE" speedFactor="1.00" vaporized=""/>
    <tripinfo id="153" depart="37.00" departLane="53_4way_26to4way_27_0" departPos="5.10" departSpeed="0.00" departDelay="0.59" arrival="73.00" arrivalLane="53_4way_26to4way_27_0" arrivalPos="85.60" arrivalSpeed="6.01" duration="36.00" routeLength="80.50" waitingTime="21.00" waitingCount="1" stopTime="0.00" timeLoss="29.36" rerouteNo="0" devices="tripinfo_153" vType="DEFAULT_VEHTYPE" speedFactor="0.90" vaporized=""/>
    <tripinfo id="259" depart="63.00" departLane="45_4way_20to4way_19_0" departPos="5.10" departSpeed="0.00" departDelay="1.36" arrival="73.00" arrivalLane="45_4way_20to4way_19_0" arrivalPos="85.60" arrivalSpeed="12.34" duration="10.00" routeLength="80.50" waitingTime="0.00" waitingCount="0" stopTime="0.00" timeLoss="3.14" rerouteNo="0" devices="tripinfo_259" vType="DEFAULT_VEHTYPE" speedFactor="0.94" vaporized=""/>
    <tripinfo id="264" depart="65.00" departLane="47_4way_21to4way_20_0" departPos="5.10" departSpeed="0.00" departDelay="2.17" arrival="75.00" arrivalLane="47_4way_21to4way_20_0" arrivalPos="85.60" arrivalSpeed="10.75" duration="10.00" routeLength="80.50" waitingTime="0.00" waitingCount="0" stopTime="0.00" timeLoss="3.09" rerouteNo="0" devices="tripinfo_264" vType="DEFAULT_VEHTYPE" speedFactor="0.86" vaporized=""/>