<?xml version="1.0" encoding="UTF-8"?>

<!-- generated on 2023-08-14 15:16:36 by Eclipse SUMO sumo Version 1.12.0
<configuration xmlns:xsi="http://www.w3.org/2001/XMLSchema-instance" xsi:noNamespaceSchemaLocation="http://sumo.dlr.de/xsd/sumoConfiguration.xsd">

    <input>
        <net-file value="../../data_generation/sq.net.xml"/>
        <route-files value="../../data_generation/sq.rou.xml"/>
    </input>

    <output>
        <tripinfo-output value="tripinfo.xml"/>
        <statistic-output value="statistic.xml"/>
    </output>

    <time>
        <begin value="0"/>
        <end value="3600"/>
    </time>

    <processing>
        <time-to-teleport value="-1"/>
    </processing>

    <traci_server>
        <remote-port value="37847"/>
    </traci_server>

    <random_number>
        <seed value="1395"/>
    </random_number>

    <gui_only>
        <gui-settings-file value="../../data_generation/view_HY_0402.xml"/>
    </gui_only>

</configuration>
-->

<tripinfos xmlns:xsi="http://www.w3.org/2001/XMLSchema-instance" xsi:noNamespaceSchemaLocation="http://sumo.dlr.de/xsd/tripinfo_file.xsd">
    <tripinfo id="22" depart="2.00" departLane="1159_4way_90to4way_65_0" departPos="5.10" departSpeed="0.00" departDelay="0.53" arrival="19.00" arrivalLane="777_4way_65to4way_40_0" arrivalPos="85.60" arrivalSpeed="12.87" duration="17.00" routeLength="180.50" waitingTime="0.00" waitingCount="0" stopTime="0.00" timeLoss="3.25" rerouteNo="0" devices="tripinfo_22" vType="DEFAULT_VEHTYPE" speedFactor="1.00" vaporized=""/>
    <tripinfo id="198" depart="14.00" departLane="689_4way_381to4way_356_0" departPos="5.10" departSpeed="0.00" departDelay="0.81" arrival="24.00" arrivalLane="689_4way_381to4way_356_0" arrivalPos="85.60" arrivalSpeed="11.73" duration="10.00" routeLength="80.50" waitingTime="0.00" waitingCount="0" stopTime="0.00" timeLoss="2.64" rerouteNo="0" devices="tripinfo_198" vType="DEFAULT_VEHTYPE" speedFactor="0.87" vaporized=""/>
    <tripinfo id="18" depart="5.00" departLane="754_4way_413to4way_388_0" departPos="5.10" departSpeed="0.00" departDelay="3.80" arrival="30.00" arrivalLane="654_4way_363to4way_338_0" arrivalPos="85.60" arrivalSpeed="12.78" duration="25.00" routeLength="280.50" waitingTime="0.00" waitingCount="0" stopTime="0.00" timeLoss="3.85" rerouteNo="0" devices="tripinfo_18" vType="DEFAULT_VEHTYPE" speedFactor="0.96" vaporized=""/>
    <tripinfo id="351" depart="24.00" departLane="163_3way_617to3way_618_0" departPos="5.10" departSpeed="0.00" departDelay="0.62" arrival="43.00" arrivalLane="165_3way_618to3way_619_0" arrivalPos="85.60" arrivalSpeed="11.14" duration="19.00" routeLength="180.50" waitingTime="0.00" waitingCount="0" stopTime="0.00" timeLoss="3.54" rerouteNo="0" devices="tripinfo_351" vType="DEFAULT_VEHTYPE" speedFactor="0.85" vaporized=""/>
    <tripinfo id="332" depart="26.00" departLane="941_4way_482to4way_507_0" departPos="5.10" departSpeed="0.00" departDelay="3.89" arrival="45.00" arrivalLane="986_4way_507to4way_532_0" arrivalPos="85.60" arrivalSpeed="11.23" duration="19.00" routeLength="180.50" waitingTime="0.00" waitingCount="0" stopTime="0.00" timeLoss="3.21" rerouteNo="0" devices="tripinfo_332" vType="DEFAULT_VEHTYPE" speedFactor="0.83" vaporized=""/>
    <tripinfo id="576" depart="39.00" departLane="302_4way_154to4way_153_0" departPos="5.10" departSpeed="0.00" departDelay="0.64" arrival="49.00" arrivalLane="302_4way_154to4way_153_0" arrivalPos="85.60" arrivalSpeed="13.38" duration="10.00" routeLength="80.50" waitingTime="0.00" waitingCount="0" stopTime="0.00" timeLoss="3.29" rerouteNo="0" devices="tripinfo_576" vType="DEFAULT_VEHTYPE" speedFactor="1.00" vaporized=""/>
    <tripinfo id="89" depart="6.00" departLane="39_3way_20to3way_19_0" departPos="5.10" departSpeed="0.00" departDelay="0.07" arrival="50.00" arrivalLane="30_3way_16to4way_41_0" arrivalPos="85.60" arrivalSpeed="12.55" duration="44.00" routeLength="475.13" waitingTime="0.00" waitingCount="0" stopTime="0.00" timeLoss="6.72" rerouteNo="0" devices="tripinfo_89" vType="DEFAULT_VEHTYPE" speedFactor="0.93" vaporized=""/>
    <tripinfo id="610" depart="41.00" departLane="626_4way_323to4way_348_0" departPos="5.10" departSpeed="0.00" departDelay="0.37" arrival="51.00" arrivalLane="626_4way_323to4way_348_0" arrivalPos="85.60" arrivalSpeed="12.75" duration="10.00" routeLength="80.50" waitingTime="0.00" waitingCount="0" stopTime="0.00" timeLoss="3.40" rerouteNo="0" devices="tripinfo_610" vType="DEFAULT_VEHTYPE" speedFactor="0.93" vaporized=""/>
    <tripinfo id="370" depart="25.00" departLane="297_4way_148to4way_173_0" departPos="5.10" departSpeed="0.00" departDelay="0.36" arrival="53.00" arrivalLane="42_4way_198to3way_199_0" arrivalPos="85.60" arrivalSpeed="12.38" duration="28.00" routeLength="275.13" waitingTime="0.00" waitingCount="0" stopTime="0.00" timeLoss="5.86" rerouteNo="0" devices="tripinfo_370" vType="DEFAULT_VEHTYPE" speedFactor="0.96" vaporized=""/>
    <tripinfo id="388" depart="26.00" departLane="362_4way_210to4way_185_0" departPos="5.10" departSpeed="0.00" departDelay="0.16" arrival="54.00" arrivalLane="314_4way_160to4way_159_0" arrivalPos="85.60" arrivalSpeed="12.56" duration="28.00" routeLength="275.13" waitingTime="0.00" waitingCount="0" stopTime="0.00" timeLoss="5.40" rerouteNo="0" devices="tripinfo_388" vType="DEFAULT_VEHTYPE" speedFactor="0.95" vaporized=""/>
    <tripinfo id="493" depart="33.00" departLane="617_4way_319to4way_344_0" departPos="5.10" departSpeed="0.00" departDelay="0.17" arrival="61.00" arrivalLane="716_4way_369to4way_370_0" arrivalPos="85.60" arrivalSpeed="13.03" duration="28.00" routeLength="275.13" waitingTime="0.00" waitingCount="0" stopTime="0.00" timeLoss="5.52" rerouteNo="0" devices="tripinfo_493" vType="DEFAULT_VEHTYPE" speedFactor="0.94" vaporized=""/>
    <tripinfo id="156" depart="11.00" departLane="157_3way_614to3way_615_0" departPos="5.10" departSpeed="0.00" departDelay="0.61" arrival="62.00" arrivalLane="167_3way_619to3way_620_0" arrivalPos="85.60" arrivalSpeed="11.59" duration="51.00" routeLength="580.50" waitingTime="0.00" waitingCount="0" stopTime="0.00" timeLoss="5.13" rerouteNo="0" devices="tripinfo_156" vType="DEFAULT_VEHTYPE" speedFactor="0.91" vaporized=""/>
    <tripinfo id="637" depart="43.00" departLane="286_4way_142to4way_167_0" departPos="5.10" departSpeed="0.00" departDelay="0.58" arrival="63.00" arrivalLane="330_4way_167to4way_168_0" arrivalPos="85.60" arrivalSpeed="11.87" duration="20.00" routeLength="175.13" waitingTime="0.00" waitingCount="0" stopTime="0.00" timeLoss="5.39" rerouteNo="0" devices="tripinfo_637" vType="DEFAULT_VEHTYPE" speedFactor="0.94" vaporized=""/>
    <tripinfo id="452" depart="33.00" departLane="923_4way_496to4way_471_0" departPos="5.10" departSpeed="0.00" departDelay="2.90" arrival="65.00" arrivalLane="820_4way_421to4way_420_0" arrivalPos="85.60" arrivalSpeed="14.81" duration="32.00" routeLength="375.13" waitingTime="0.00" waitingCount="0" stopTime="0.00" timeLoss="5.86" rerouteNo="0" devices="tripinfo_452" vType="DEFAULT_VEHTYPE" speedFactor="1.09" vaporized=""/>
    <tripinfo id="482" depart="33.00" departLane="638_4way_330to4way_355_0" departPos="5.10" departSpeed="0.00" departDelay="0.90" arrival="65.00" arrivalLane="787_4way_405to4way_430_0" arrivalPos="85.60" arrivalSpeed="13.83" duration="32.00" routeLength="380.50" waitingTime="0.00" waitingCount="0" stopTime="0.00" timeLoss="4.51" rerouteNo="0" devices="tripinfo_482" vType="DEFAULT_VEHTYPE" speedFactor="1.03" vaporized=""/>
    <tripinfo id="397" depart="27.00" departLane="296_4way_147to4way_172_0" departPos="5.10" departSpeed="0.00" departDelay="0.56" arrival="66.00" arrivalLane="475_4way_247to4way_248_0" arrivalPos="85.60" arrivalSpeed="14.17" duration="39.00" routeLength="475.13" waitingTime="0.00" waitingCount="0" stopTime="0.00" timeLoss="5.72" rerouteNo="0" devices="tripinfo_397" vType="DEFAULT_VEHTYPE" speedFactor="1.05" vaporized=""/>
    <tripinfo id="692" depart="47.00" departLane="650_4way_361to4way_336_0" departPos="5.10" departSpeed="0.00" departDelay="0.91" arrival="66.00" arrivalLane="647_4way_336to4way_335_0" arrivalPos="85.60" arrivalSpeed="14.75" duration="19.00" routeLength="175.13" waitingTime="0.00" waitingCount="0" stopTime="0.00" timeLoss="6.05" rerouteNo="0" devices="tripinfo_692" vType="DEFAULT_VEHTYPE" speedFactor="1.13" vaporized=""/>
    <tripinfo id="531" depart="38.00" departLane="176_3way_8to3way_7_0" departPos="5.10" departSpeed="0.00" departDelay="2.63" arrival="67.00" arrivalLane="89_3way_5to3way_4_0" arrivalPos="85.60" arrivalSpeed="14.40" duration="29.00" routeLength="380.50" waitingTime="0.00" waitingCount="0" stopTime="0.00" timeLoss="3.85" rerouteNo="0" devices="tripinfo_531" vType="DEFAULT_VEHTYPE" speedFactor="1.11" vaporized=""/>
    <tripinfo id="24" depart="2.00" departLane="889_4way_481to4way_456_0" departPos="5.10" departSpeed="0.00" departDelay="0.40" arrival="68.00" arrivalLane="586_4way_306to4way_305_0" arrivalPos="85.60" arrivalSpeed="13.01" duration="66.00" routeLength="775.13" waitingTime="0.00" waitingCount="0" stopTime="0.00" timeLoss="7.70" rerouteNo="0" devices="tripinfo_24" vType="DEFAULT_VEHTYPE" speedFactor="0.97" vaporized=""/>
    <tripinfo id="163" depart="11.00" departLane="860_4way_465to4way_440_0" departPos="5.10" departSpeed="0.00" departDelay="0.14" arrival="69.00" arrivalLane="560_4way_315to4way_290_0" arrivalPos="85.60" arrivalSpeed="12.30" duration="58.00" routeLength="680.50" waitingTime="0.00" waitingCount="0" stopTime="0.00" timeLoss="5.64" rerouteNo="0" devices="tripinfo_163" vType="DEFAULT_VEHTYPE" speedFactor="0.94" vaporized=""/>
    <tripinfo id="115" depart="8.00" departLane="881_4way_452to4way_477_0" departPos="5.10" departSpeed="0.00" departDelay="0.34" arrival="70.00" arrivalLane="975_4way_502to4way_503_0" arrivalPos="85.60" arrivalSpeed="5.18" duration="62.00" routeLength="275.13" waitingTime="30.00" waitingCount="1" stopTime="0.00" timeLoss="39.50" rerouteNo="0" devices="tripinfo_115" vType="DEFAULT_VEHTYPE" speedFactor="0.92" vaporized=""/>
    <tripinfo id="213" depart="15.00" departLane="97_3way_474to3way_449_0" departPos="5.10" departSpeed="0.00" departDelay="0.81" arrival="70.00" arrivalLane="98_3way_449to4way_448_0" arrivalPos="85.60" arrivalSpeed="5.54" duration="55.00" routeLength="175.13" waitingTime="30.00" waitingCount="1" stopTime="0.00" timeLoss="40.52" rerouteNo="0" devices="tripinfo_213" vType="DEFAULT_VEHTYPE" speedFactor="0.91" vaporized=""/>
    <tripinfo id="303" depart="21.00" departLane="532_4way_278to4way_303_0" departPos="5.10" departSpeed="0.00" departDelay="0.82" arrival="70.00" arrivalLane="782_4way_403to4way_404_0" arrivalPos="85.60" arrivalSpeed="10.33" duration="49.00" routeLength="575.13" waitingTime="0.00" waitingCount="0" stopTime="0.00" timeLoss="7.73" rerouteNo="0" devices="tripinfo_303" vType="DEFAULT_VEHTYPE" speedFactor="1.02" vaporized=""/>
    <tripinfo id="357" depart="24.00" departLane="391_4way_227to4way_202_0" departPos="5.10" departSpeed="0.00" departDelay="0.22" arrival="70.00" arrivalLane="185_4way_102to4way_101_0" arrivalPos="85.60" arrivalSpeed="14.06" duration="46.00" routeLength="575.13" waitingTime="0.00" waitingCount="0" stopTime="0.00" timeLoss="5.65" rerouteNo="0" devices="tripinfo_357" vType="DEFAULT_VEHTYPE" speedFactor="1.04" vaporized=""/>
    <tripinfo id="27" depart="2.00" departLane="434_4way_226to4way_251_0" departPos="5.10" departSpeed="0.00" departDelay="0.20" arrival="72.00" arrivalLane="727_4way_376to4way_377_0" arrivalPos="85.60" arrivalSpeed="6.81" duration="70.00" routeLength="675.13" waitingTime="9.00" waitingCount="1" stopTime="0.00" timeLoss="22.19" rerouteNo="0" devices="tripinfo_27" vType="DEFAULT_VEHTYPE" speedFactor="1.03" vaporized=""/>
    <tripinfo id="841" depart="57.00" departLane="45_3way_21to3way_20_0" departPos="5.10" departSpeed="0.00" departDelay="0.99" arrival="75.00" arrivalLane="46_3way_20to4way_45_0" arrivalPos="85.60" arrivalSpeed="13.01" duration="18.00" routeLength="175.13" waitingTime="0.00" waitingCount="0" stopTime="0.00" timeLoss="5.06" rerouteNo="0" devices="tripinfo_841" vType="DEFAULT_VEHTYPE" speedFactor="1.02" vaporized=""/>
    <tripinfo id="68" depart="5.00" departLane="707_4way_389to4way_364_0" departPos="5.10" departSpeed="0.00" departDelay="0.47" arrival="76.00" arrivalLane="602_4way_313to4way_312_0" arrivalPos="85.60" arrivalSpeed="15.10" duration="71.00" routeLength="475.13" waitingTime="28.00" waitingCount="1" stopTime="0.00" timeLoss="39.04" rerouteNo="0" devices="tripinfo_68" vType="DEFAULT_VEHTYPE" speedFactor="1.09" vaporized=""/>
    <tripinfo id="20" depart="2.00" departLane="893_4way_483to4way_458_0" departPos="5.10" departSpeed="0.00" departDelay="0.67" arrival="77.00" arrivalLane="839_4way_432to4way_431_0" arrivalPos="85.60" arrivalSpeed="11.11" duration="75.00" routeLength="375.13" waitingTime="32.00" waitingCount="1" stopTime="0.00" timeLoss="43.56" rerouteNo="0" devices="tripinfo_20" vType="DEFAULT_VEHTYPE" speedFactor="0.89" vaporized=""/>
    <tripinfo id="176" depart="12.00" departLane="848_4way_460to4way_435_0" departPos="5.10" departSpeed="0.00" departDelay="0.28" arrival="77.00" arrivalLane="743_4way_384to4way_383_0" arrivalPos="85.60" arrivalSpeed="12.59" duration="65.00" routeLength="475.13" waitingTime="16.00" waitingCount="1" stopTime="0.00" timeLoss="28.47" rerouteNo="0" devices="tripinfo_176" vType="DEFAULT_VEHTYPE" speedFactor="0.97" vaporized=""/>
    <tripinfo id="334" depart="23.00" departLane="325_4way_164to4way_189_0" departPos="5.10" departSpeed="0.00" departDelay="0.76" arrival="77.00" arrivalLane="371_4way_190to4way_191_0" arrivalPos="85.60" arrivalSpeed="15.96" duration="54.00" routeLength="275.13" waitingTime="23.00" waitingCount="1" stopTime="0.00" timeLoss="36.06" rerouteNo="0" devices="tripinfo_334" vType="DEFAULT_VEHTYPE" speedFactor="1.19" vaporized=""/>
    <tripinfo id="479" depart="32.00" departLane="876_4way_46to4way_45_0" departPos="5.10" departSpeed="0.00" departDelay="0.10" arrival="77.00" arrivalLane="877_4way_45to4way_70_0" arrivalPos="85.60" arrivalSpeed="13.11" duration="45.00" routeLength="175.13" waitingTime="23.00" waitingCount="1" stopTime="0.00" timeLoss="31.71" rerouteNo="0" devices="tripinfo_479" vType="DEFAULT_VEHTYPE" speedFactor="1.04" vaporized=""/>
    <tripinfo id="438" depart="30.00" departLane="740_4way_381to4way_406_0" departPos="5.10" departSpeed="0.00" departDelay="0.83" arrival="78.00" arrivalLane="790_4way_407to4way_408_0" arrivalPos="85.60" arrivalSpeed="12.04" duration="48.00" routeLength="275.13" waitingTime="13.00" waitingCount="1" stopTime="0.00" timeLoss="25.08" rerouteNo="0" devices="tripinfo_438" vType="DEFAULT_VEHTYPE" speedFactor="0.92" vaporized=""/>
    <tripinfo id="187" depart="13.00" departLane="389_4way_201to4way_226_0" departPos="5.10" departSpeed="0.00" departDelay="0.55" arrival="79.00" arrivalLane="580_4way_302to4way_303_0" arrivalPos="85.60" arrivalSpeed="13.76" duration="66.00" routeLength="575.13" waitingTime="10.00" waitingCount="1" stopTime="0.00" timeLoss="24.55" rerouteNo="0" devices="tripinfo_187" vType="DEFAULT_VEHTYPE" speedFactor="1.03" vaporized=""/>
    <tripinfo id="318" depart="22.00" departLane="133_3way_603to3way_602_0" departPos="5.10" departSpeed="0.00" departDelay="0.82" arrival="79.00" arrivalLane="113_3way_525to3way_500_0" arrivalPos="85.60" arrivalSpeed="12.93" duration="57.00" routeLength="683.70" waitingTime="0.00" waitingCount="0" stopTime="0.00" timeLoss="7.99" rerouteNo="0" devices="tripinfo_318" vType="DEFAULT_VEHTYPE" speedFactor="1.01" vaporized=""/>
    <tripinfo id="972" depart="65.00" departLane="109_3way_6to3way_5_0" departPos="5.10" departSpeed="0.00" departDelay="0.26" arrival="81.00" arrivalLane="89_3way_5to3way_4_0" arrivalPos="85.60" arrivalSpeed="15.33" duration="16.00" routeLength="180.50" waitingTime="0.00" waitingCount="0" stopTime="0.00" timeLoss="4.10" rerouteNo="0" devices="tripinfo_972" vType="DEFAULT_VEHTYPE" speedFactor="1.12" vaporized=""/>
    <tripinfo id="262" depart="18.00" departLane="619_4way_57to4way_32_0" departPos="5.10" departSpeed="0.00" departDelay="0.55" arrival="86.00" arrivalLane="109_3way_6to3way_5_0" arrivalPos="85.60" arrivalSpeed="12.83" duration="68.00" routeLength="375.13" waitingTime="28.00" waitingCount="1" stopTime="0.00" timeLoss="37.52" rerouteNo="0" devices="tripinfo_262" vType="DEFAULT_VEHTYPE" speedFactor="0.93" vaporized=""/>
    <tripinfo id="466" depart="32.00" departLane="146_3way_608to4way_583_0" departPos="5.10" departSpeed="0.00" departDelay="0.96" arrival="86.00" arrivalLane="1128_4way_581to4way_580_0" arrivalPos="85.60" arrivalSpeed="11.77" duration="54.00" routeLength="375.13" waitingTime="12.00" waitingCount="1" stopTime="0.00" timeLoss="23.81" rerouteNo="0" devices="tripinfo_466" vType="DEFAULT_VEHTYPE" speedFactor="0.92" vaporized=""/>
    <tripinfo id="669" depart="45.00" departLane="392_4way_204to4way_203_0" departPos="5.10" departSpeed="0.00" departDelay="0.44" arrival="86.00" arrivalLane="438_4way_228to4way_253_0" arrivalPos="85.60" arrivalSpeed="13.90" duration="41.00" routeLength="275.13" waitingTime="10.00" waitingCount="1" stopTime="0.00" timeLoss="21.07" rerouteNo="0" devices="tripinfo_669" vType="DEFAULT_VEHTYPE" speedFactor="1.08" vaporized=""/>
    <tripinfo id="132" depart="9.00" departLane="237_4way_143to4way_118_0" departPos="5.10" departSpeed="0.00" departDelay="0.21" arrival="88.00" arrivalLane="1189_4way_91to4way_90_0" arrivalPos="85.60" arrivalSpeed="11.09" duration="79.00" routeLength="475.13" waitingTime="26.00" waitingCount="1" stopTime="0.00" timeLoss="38.49" rerouteNo="0" devices="tripinfo_132" vType="DEFAULT_VEHTYPE" speedFactor="0.86" vaporized=""/>
    <tripinfo id="554" depart="37.00" departLane="987_4way_508to4way_509_0" departPos="5.10" departSpeed="0.00" departDelay="0.10" arrival="88.00" arrivalLane="895_4way_484to4way_459_0" arrivalPos="85.60" arrivalSpeed="13.35" duration="51.00" routeLength="275.13" waitingTime="20.00" waitingCount="1" stopTime="0.00" timeLoss="29.13" rerouteNo="0" devices="tripinfo_554" vType="DEFAULT_VEHTYPE" speedFactor="0.97" vaporized=""/>
    <tripinfo id="7" depart="1.00" departLane="159_3way_615to3way_616_0" departPos="5.10" departSpeed="0.00" departDelay="0.53" arrival="90.00" arrivalLane="123_3way_599to3way_574_0" arrivalPos="85.60" arrivalSpeed="12.97" duration="89.00" routeLength="1077.30" waitingTime="0.00" waitingCount="0" stopTime="0.00" timeLoss="6.84" rerouteNo="0" devices="tripinfo_7" vType="DEFAULT_VEHTYPE" speedFactor="0.95" vaporized=""/>
    <tripinfo id="350" depart="24.00" departLane="536_4way_28to4way_53_0" departPos="5.10" departSpeed="0.00" departDelay="0.69" arrival="91.00" arrivalLane="1091_4way_56to4way_57_0" arrivalPos="85.60" arrivalSpeed="13.72" duration="67.00" routeLength="475.13" waitingTime="22.00" waitingCount="1" stopTime="0.00" timeLoss="33.67" rerouteNo="0" devices="tripinfo_350" vType="DEFAULT_VEHTYPE" speedFactor="1.07" vaporized=""/>
    <tripinfo id="381" depart="26.00" departLane="1091_4way_56to4way_57_0" departPos="5.10" departSpeed="0.00" departDelay="0.62" arrival="91.00" arrivalLane="658_4way_59to4way_34_0" arrivalPos="85.60" arrivalSpeed="16.80" duration="65.00" routeLength="375.13" waitingTime="28.00" waitingCount="1" stopTime="0.00" timeLoss="42.49" rerouteNo="0" devices="tripinfo_381" vType="DEFAULT_VEHTYPE" speedFactor="1.27" vaporized=""/>
    <tripinfo id="446" depart="30.00" departLane="366_4way_212to4way_187_0" departPos="5.10" departSpeed="0.00" departDelay="0.30" arrival="91.00" arrivalLane="1183_4way_85to4way_84_0" arrivalPos="85.60" arrivalSpeed="14.72" duration="61.00" routeLength="775.13" waitingTime="0.00" waitingCount="0" stopTime="0.00" timeLoss="7.35" rerouteNo="0" devices="tripinfo_446" vType="DEFAULT_VEHTYPE" speedFactor="1.07" vaporized=""/>
    <tripinfo id="138" depart="10.00" departLane="666_4way_368to4way_343_0" departPos="5.10" departSpeed="0.00" departDelay="0.81" arrival="92.00" arrivalLane="522_4way_271to4way_272_0" arrivalPos="85.60" arrivalSpeed="13.55" duration="82.00" routeLength="780.30" waitingTime="12.00" waitingCount="1" stopTime="0.00" timeLoss="25.00" rerouteNo="0" devices="tripinfo_138" vType="DEFAULT_VEHTYPE" speedFactor="1.00" vaporized=""/>
    <tripinfo id="1015" depart="68.00" departLane="61_3way_50to3way_25_0" departPos="5.10" departSpeed="0.00" departDelay="0.40" arrival="92.00" arrivalLane="2_3way_25to3way_1_0" arrivalPos="188.80" arrivalSpeed="14.19" duration="24.00" routeLength="283.70" waitingTime="0.00" waitingCount="0" stopTime="0.00" timeLoss="4.00" rerouteNo="0" devices="tripinfo_1015" vType="DEFAULT_VEHTYPE" speedFactor="1.06" vaporized=""/>
    <tripinfo id="893" depart="60.00" departLane="1075_4way_552to4way_553_0" departPos="5.10" departSpeed="0.00" departDelay="0.53" arrival="93.00" arrivalLane="1081_4way_555to4way_556_0" arrivalPos="85.60" arrivalSpeed="12.49" duration="33.00" routeLength="380.50" waitingTime="0.00" waitingCount="0" stopTime="0.00" timeLoss="4.17" rerouteNo="0" devices="tripinfo_893" vType="DEFAULT_VEHTYPE" speedFactor="0.95" vaporized=""/>
    <tripinfo id="229" depart="16.00" departLane="921_4way_495to4way_470_0" departPos="5.10" departSpeed="0.00" departDelay="0.75" arrival="100.00" arrivalLane="861_4way_442to4way_441_0" arrivalPos="85.60" arrivalSpeed="9.73" duration="84.00" routeLength="575.13" waitingTime="14.00" waitingCount="1" stopTime="0.00" timeLoss="27.35" rerouteNo="0" devices="tripinfo_229" vType="DEFAULT_VEHTYPE" speedFactor="0.75" vaporized=""/>
    <tripinfo id="233" depart="16.00" departLane="262_4way_155to4way_130_0" departPos="5.10" departSpeed="0.00" departDelay="0.48" arrival="100.00" arrivalLane="206_4way_108to4way_109_0" arrivalPos="85.60" arrivalSpeed="11.56" duration="84.00" routeLength="580.30" waitingTime="19.00" waitingCount="1" stopTime="0.00" timeLoss="32.80" rerouteNo="0" devices="tripinfo_233" vType="DEFAULT_VEHTYPE" speedFactor="0.83" vaporized=""/>
    <tripinfo id="484" depart="33.00" departLane="870_4way_445to4way_470_0" departPos="5.10" departSpeed="0.00" departDelay="0.77" arrival="101.00" arrivalLane="116_4way_523to3way_524_0" arrivalPos="85.60" arrivalSpeed="11.56" duration="68.00" routeLength="675.13" waitingTime="0.00" waitingCount="0" stopTime="0.00" timeLoss="8.35" rerouteNo="0" devices="tripinfo_484" vType="DEFAULT_VEHTYPE" speedFactor="0.84" vaporized=""/>
    <tripinfo id="1340" depart="92.00" departLane="934_4way_504to4way_479_0" departPos="5.10" departSpeed="0.00" departDelay="2.76" arrival="101.00" arrivalLane="934_4way_504to4way_479_0" arrivalPos="85.60" arrivalSpeed="12.37" duration="9.00" routeLength="80.50" waitingTime="0.00" waitingCount="0" stopTime="0.00" timeLoss="2.48" rerouteNo="0" devices="tripinfo_1340" vType="DEFAULT_VEHTYPE" speedFactor="0.95" vaporized=""/>
    <tripinfo id="1377" depart="92.00" departLane="153_3way_612to3way_613_0" departPos="5.10" departSpeed="0.00" departDelay="0.29" arrival="101.00" arrivalLane="153_3way_612to3way_613_0" arrivalPos="85.60" arrivalSpeed="15.04" duration="9.00" routeLength="80.50" waitingTime="0.00" waitingCount="0" stopTime="0.00" timeLoss="3.41" rerouteNo="0" devices="tripinfo_1377" vType="DEFAULT_VEHTYPE" speedFactor="1.09" vaporized=""/>
    <tripinfo id="455" depart="34.00" departLane="75_3way_349to3way_324_0" departPos="5.10" departSpeed="0.00" departDelay="3.70" arrival="105.00" arrivalLane="383_4way_197to4way_196_0" arrivalPos="85.60" arrivalSpeed="13.93" duration="71.00" routeLength="875.13" waitingTime="0.00" waitingCount="0" stopTime="0.00" timeLoss="11.39" rerouteNo="0" devices="tripinfo_455" vType="DEFAULT_VEHTYPE" speedFactor="1.08" vaporized=""/>
    <tripinfo id="162" depart="11.00" departLane="360_4way_209to4way_184_0" departPos="5.10" departSpeed="0.00" departDelay="0.21" arrival="107.00" arrivalLane="1052_4way_55to4way_54_0" arrivalPos="85.60" arrivalSpeed="12.71" duration="96.00" routeLength="1075.13" waitingTime="0.00" waitingCount="0" stopTime="0.00" timeLoss="15.00" rerouteNo="0" devices="tripinfo_162" vType="DEFAULT_VEHTYPE" speedFactor="0.96" vaporized=""/>
    <tripinfo id="533" depart="41.00" departLane="1174_4way_73to4way_98_0" departPos="5.10" departSpeed="0.00" departDelay="5.50" arrival="111.00" arrivalLane="53_3way_224to3way_249_0" arrivalPos="85.60" arrivalSpeed="15.06" duration="70.00" routeLength="774.92" waitingTime="6.00" waitingCount="1" stopTime="0.00" timeLoss="17.47" rerouteNo="0" devices="tripinfo_533" vType="DEFAULT_VEHTYPE" speedFactor="1.09" vaporized=""/>
    <tripinfo id="629" depart="47.00" departLane="872_4way_471to4way_446_0" departPos="5.10" departSpeed="0.00" departDelay="5.11" arrival="112.00" arrivalLane="859_4way_441to4way_440_0" arrivalPos="85.60" arrivalSpeed="12.28" duration="65.00" routeLength="675.13" waitingTime="0.00" waitingCount="0" stopTime="0.00" timeLoss="10.85" rerouteNo="0" devices="tripinfo_629" vType="DEFAULT_VEHTYPE" speedFactor="0.91" vaporized=""/>
    <tripinfo id="503" depart="34.00" departLane="39_3way_20to3way_19_0" departPos="5.10" departSpeed="0.00" departDelay="0.50" arrival="116.00" arrivalLane="11_3way_11to4way_36_0" arrivalPos="85.60" arrivalSpeed="13.57" duration="82.00" routeLength="975.13" waitingTime="0.00" waitingCount="0" stopTime="0.00" timeLoss="13.60" rerouteNo="0" devices="tripinfo_503" vType="DEFAULT_VEHTYPE" speedFactor="1.04" vaporized=""/>
    <tripinfo id="1286" depart="86.00" departLane="170_3way_620to4way_595_0" departPos="5.10" departSpeed="0.00" departDelay="0.35" arrival="118.00" arrivalLane="1016_4way_545to4way_520_0" arrivalPos="85.60" arrivalSpeed="13.28" duration="32.00" routeLength="380.50" waitingTime="0.00" waitingCount="0" stopTime="0.00" timeLoss="3.94" rerouteNo="0" devices="tripinfo_1286" vType="DEFAULT_VEHTYPE" speedFactor="1.01" vaporized=""/>
    <tripinfo id="1511" depart="101.00" departLane="823_4way_421to4way_446_0" departPos="5.10" departSpeed="0.00" departDelay="0.37" arrival="119.00" arrivalLane="871_4way_446to4way_447_0" arrivalPos="85.60" arrivalSpeed="14.18" duration="18.00" routeLength="175.13" waitingTime="0.00" waitingCount="0" stopTime="0.00" timeLoss="5.32" rerouteNo="0" devices="tripinfo_1511" vType="DEFAULT_VEHTYPE" speedFactor="1.04" vaporized=""/>
    <tripinfo id="1178" depart="79.00" departLane="191_4way_103to4way_104_0" departPos="5.10" departSpeed="0.00" departDelay="0.54" arrival="120.00" arrivalLane="206_4way_108to4way_109_0" arrivalPos="85.60" arrivalSpeed="15.56" duration="41.00" routeLength="580.50" waitingTime="0.00" waitingCount="0" stopTime="0.00" timeLoss="5.62" rerouteNo="0" devices="tripinfo_1178" vType="DEFAULT_VEHTYPE" speedFactor="1.21" vaporized=""/>
    <tripinfo id="688" depart="46.00" departLane="1094_4way_560to4way_585_0" departPos="5.10" departSpeed="0.00" departDelay="0.18" arrival="127.00" arrivalLane="161_3way_616to3way_617_0" arrivalPos="85.60" arrivalSpeed="12.26" duration="81.00" routeLength="875.13" waitingTime="1.00" waitingCount="1" stopTime="0.00" timeLoss="11.37" rerouteNo="0" devices="tripinfo_688" vType="DEFAULT_VEHTYPE" speedFactor="0.91" vaporized=""/>
    <tripinfo id="273" depart="19.00" departLane="1110_4way_593to4way_568_0" departPos="5.10" departSpeed="0.00" departDelay="0.82" arrival="130.00" arrivalLane="956_4way_491to4way_490_0" arrivalPos="85.60" arrivalSpeed="6.82" duration="111.00" routeLength="675.13" waitingTime="44.00" waitingCount="2" stopTime="0.00" timeLoss="62.88" rerouteNo="0" devices="tripinfo_273" vType="DEFAULT_VEHTYPE" speedFactor="1.04" vaporized=""/>
    <tripinfo id="809" depart="55.00" departLane="126_3way_575to4way_576_0" departPos="5.10" departSpeed="0.00" departDelay="1.12" arrival="130.00" arrivalLane="1023_4way_551to4way_526_0" arrivalPos="85.60" arrivalSpeed="5.56" duration="75.00" routeLength="275.13" waitingTime="40.00" waitingCount="2" stopTime="0.00" timeLoss="52.46" rerouteNo="0" devices="tripinfo_809" vType="DEFAULT_VEHTYPE" speedFactor="0.93" vaporized=""/>
    <tripinfo id="878" depart="59.00" departLane="1066_4way_547to4way_546_0" departPos="5.10" departSpeed="0.00" departDelay="0.52" arrival="130.00" arrivalLane="1064_4way_546to4way_545_0" arrivalPos="85.60" arrivalSpeed="5.56" duration="71.00" routeLength="180.50" waitingTime="46.00" waitingCount="1" stopTime="0.00" timeLoss="59.63" rerouteNo="0" devices="tripinfo_878" vType="DEFAULT_VEHTYPE" speedFactor="1.15" vaporized=""/>
    <tripinfo id="1165" depart="78.00" departLane="188_4way_102to4way_103_0" departPos="5.10" departSpeed="0.00" departDelay="0.41" arrival="130.00" arrivalLane="202_4way_106to4way_81_0" arrivalPos="85.60" arrivalSpeed="5.65" duration="52.00" routeLength="475.13" waitingTime="8.00" waitingCount="1" stopTime="0.00" timeLoss="21.77" rerouteNo="0" devices="tripinfo_1165" vType="DEFAULT_VEHTYPE" speedFactor="1.16" vaporized=""/>
    <tripinfo id="1750" depart="117.00" departLane="34_3way_174to4way_173_0" departPos="5.10" departSpeed="0.00" departDelay="0.45" arrival="130.00" arrivalLane="34_3way_174to4way_173_0" arrivalPos="85.60" arrivalSpeed="6.60" duration="13.00" routeLength="80.50" waitingTime="0.00" waitingCount="0" stopTime="0.00" timeLoss="7.64" rerouteNo="0" devices="tripinfo_1750" vType="DEFAULT_VEHTYPE" speedFactor="1.14" vaporized=""/>
    <tripinfo id="1258" depart="84.00" departLane="785_4way_429to4way_404_0" departPos="5.10" departSpeed="0.00" departDelay="0.22" arrival="131.00" arrivalLane="785_4way_429to4way_404_0" arrivalPos="85.60" arrivalSpeed="6.54" duration="47.00" routeLength="80.50" waitingTime="30.00" waitingCount="1" stopTime="0.00" timeLoss="40.36" rerouteNo="0" devices="tripinfo_1258" vType="DEFAULT_VEHTYPE" speedFactor="0.94" vaporized=""/>