<?xml version="1.0" encoding="UTF-8"?>

<!-- generated on 2023-07-28 07:36:26 by Eclipse SUMO sumo Version 1.12.0
<configuration xmlns:xsi="http://www.w3.org/2001/XMLSchema-instance" xsi:noNamespaceSchemaLocation="http://sumo.dlr.de/xsd/sumoConfiguration.xsd">

    <input>
        <net-file value="../../data_generation/sq.net.xml"/>
        <route-files value="../../data_generation/sq.rou.xml"/>
    </input>

    <output>
        <tripinfo-output value="tripinfo.xml"/>
        <statistic-output value="statistic.xml"/>
    </output>

    <time>
        <begin value="0"/>
        <end value="3600"/>
    </time>

    <processing>
        <time-to-teleport value="-1"/>
    </processing>

    <traci_server>
        <remote-port value="51445"/>
    </traci_server>

    <random_number>
        <seed value="1395"/>
    </random_number>

    <gui_only>
        <gui-settings-file value="../../data_generation/view_HY_0402.xml"/>
    </gui_only>

</configuration>
-->

<tripinfos xmlns:xsi="http://www.w3.org/2001/XMLSchema-instance" xsi:noNamespaceSchemaLocation="http://sumo.dlr.de/xsd/tripinfo_file.xsd">
    <tripinfo id="1" depart="1.00" departLane="36_4way_13to4way_19_0" departPos="5.10" departSpeed="0.00" departDelay="0.61" arrival="17.00" arrivalLane="46_4way_19to4way_25_0" arrivalPos="85.60" arrivalSpeed="14.43" duration="16.00" routeLength="180.50" waitingTime="0.00" waitingCount="0" stopTime="0.00" timeLoss="3.35" rerouteNo="0" devices="tripinfo_1" vType="DEFAULT_VEHTYPE" speedFactor="1.04" vaporized=""/>
    <tripinfo id="0" depart="0.00" departLane="39_4way_20to4way_14_0" departPos="5.10" departSpeed="0.00" departDelay="0.00" arrival="18.00" arrivalLane="35_4way_14to4way_13_0" arrivalPos="85.60" arrivalSpeed="13.68" duration="18.00" routeLength="175.13" waitingTime="0.00" waitingCount="0" stopTime="0.00" timeLoss="4.86" rerouteNo="0" devices="tripinfo_0" vType="DEFAULT_VEHTYPE" speedFactor="1.00" vaporized=""/>
    <tripinfo id="21" depart="9.00" departLane="24_3way_31to3way_32_0" departPos="5.10" departSpeed="0.00" departDelay="0.77" arrival="19.00" arrivalLane="24_3way_31to3way_32_0" arrivalPos="85.60" arrivalSpeed="10.84" duration="10.00" routeLength="80.50" waitingTime="0.00" waitingCount="0" stopTime="0.00" timeLoss="2.61" rerouteNo="0" devices="tripinfo_21" vType="DEFAULT_VEHTYPE" speedFactor="0.82" vaporized=""/>
    <tripinfo id="24" depart="10.00" departLane="10_3way_17to3way_23_0" departPos="5.10" departSpeed="0.00" departDelay="0.59" arrival="19.00" arrivalLane="10_3way_17to3way_23_0" arrivalPos="85.60" arrivalSpeed="12.54" duration="9.00" routeLength="80.50" waitingTime="0.00" waitingCount="0" stopTime="0.00" timeLoss="2.93" rerouteNo="0" devices="tripinfo_24" vType="DEFAULT_VEHTYPE" speedFactor="0.97" vaporized=""/>
    <tripinfo id="15" depart="6.00" departLane="36_4way_19to4way_13_0" departPos="5.10" departSpeed="0.00" departDelay="0.12" arrival="25.00" arrivalLane="9_4way_13to3way_12_0" arrivalPos="85.60" arrivalSpeed="13.60" duration="19.00" routeLength="175.13" waitingTime="0.00" waitingCount="0" stopTime="0.00" timeLoss="5.77" rerouteNo="0" devices="tripinfo_15" vType="DEFAULT_VEHTYPE" speedFactor="1.05" vaporized=""/>
    <tripinfo id="20" depart="8.00" departLane="4_3way_11to3way_17_0" departPos="5.10" departSpeed="0.00" departDelay="0.16" arrival="27.00" arrivalLane="10_3way_17to3way_23_0" arrivalPos="85.60" arrivalSpeed="11.96" duration="19.00" routeLength="180.50" waitingTime="0.00" waitingCount="0" stopTime="0.00" timeLoss="3.54" rerouteNo="0" devices="tripinfo_20" vType="DEFAULT_VEHTYPE" speedFactor="0.89" vaporized=""/>
    <tripinfo id="8" depart="4.00" departLane="50_4way_27to4way_21_0" departPos="5.10" departSpeed="0.00" departDelay="0.86" arrival="29.00" arrivalLane="43_4way_15to4way_9_0" arrivalPos="85.60" arrivalSpeed="12.49" duration="25.00" routeLength="280.50" waitingTime="0.00" waitingCount="0" stopTime="0.00" timeLoss="3.81" rerouteNo="0" devices="tripinfo_8" vType="DEFAULT_VEHTYPE" speedFactor="0.98" vaporized=""/>
    <tripinfo id="9" depart="4.00" departLane="42_4way_15to4way_21_0" departPos="5.10" departSpeed="0.00" departDelay="0.47" arrival="33.00" arrivalLane="54_4way_27to4way_28_0" arrivalPos="85.60" arrivalSpeed="12.28" duration="29.00" routeLength="275.13" waitingTime="0.00" waitingCount="0" stopTime="0.00" timeLoss="5.94" rerouteNo="0" devices="tripinfo_9" vType="DEFAULT_VEHTYPE" speedFactor="0.91" vaporized=""/>
    <tripinfo id="18" depart="8.00" departLane="12_3way_18to3way_24_0" departPos="5.10" departSpeed="0.00" departDelay="0.94" arrival="33.00" arrivalLane="18_3way_24to3way_31_0" arrivalPos="182.40" arrivalSpeed="12.01" duration="25.00" routeLength="277.30" waitingTime="0.00" waitingCount="0" stopTime="0.00" timeLoss="3.64" rerouteNo="0" devices="tripinfo_18" vType="DEFAULT_VEHTYPE" speedFactor="0.96" vaporized=""/>
    <tripinfo id="19" depart="8.00" departLane="15_3way_2to4way_8_0" departPos="5.10" departSpeed="0.00" departDelay="0.55" arrival="35.00" arrivalLane="39_4way_14to4way_20_0" arrivalPos="85.60" arrivalSpeed="11.80" duration="27.00" routeLength="280.50" waitingTime="0.00" waitingCount="0" stopTime="0.00" timeLoss="3.97" rerouteNo="0" devices="tripinfo_19" vType="DEFAULT_VEHTYPE" speedFactor="0.89" vaporized=""/>
    <tripinfo id="27" depart="11.00" departLane="5_3way_4to3way_11_0" departPos="5.10" departSpeed="0.00" departDelay="0.41" arrival="36.00" arrivalLane="4_3way_11to3way_17_0" arrivalPos="85.60" arrivalSpeed="13.09" duration="25.00" routeLength="283.70" waitingTime="0.00" waitingCount="0" stopTime="0.00" timeLoss="4.48" rerouteNo="0" devices="tripinfo_27" vType="DEFAULT_VEHTYPE" speedFactor="1.03" vaporized=""/>
    <tripinfo id="76" depart="31.00" departLane="53_4way_27to4way_26_0" departPos="5.10" departSpeed="0.00" departDelay="1.20" arrival="41.00" arrivalLane="53_4way_27to4way_26_0" arrivalPos="85.60" arrivalSpeed="11.97" duration="10.00" routeLength="80.50" waitingTime="0.00" waitingCount="0" stopTime="0.00" timeLoss="3.03" rerouteNo="0" devices="tripinfo_76" vType="DEFAULT_VEHTYPE" speedFactor="0.90" vaporized=""/>
    <tripinfo id="16" depart="7.00" departLane="46_4way_25to4way_19_0" departPos="5.10" departSpeed="0.00" departDelay="0.73" arrival="42.00" arrivalLane="3_4way_7to3way_1_0" arrivalPos="85.60" arrivalSpeed="11.32" duration="35.00" routeLength="380.50" waitingTime="0.00" waitingCount="0" stopTime="0.00" timeLoss="3.99" rerouteNo="0" devices="tripinfo_16" vType="DEFAULT_VEHTYPE" speedFactor="0.90" vaporized=""/>
    <tripinfo id="42" depart="17.00" departLane="39_4way_14to4way_20_0" departPos="5.10" departSpeed="0.00" departDelay="0.53" arrival="42.00" arrivalLane="27_4way_26to3way_32_0" arrivalPos="85.60" arrivalSpeed="12.79" duration="25.00" routeLength="280.50" waitingTime="0.00" waitingCount="0" stopTime="0.00" timeLoss="4.58" rerouteNo="0" devices="tripinfo_42" vType="DEFAULT_VEHTYPE" speedFactor="0.99" vaporized=""/>
    <tripinfo id="45" depart="18.00" departLane="3_3way_1to4way_7_0" departPos="5.10" departSpeed="0.00" departDelay="0.35" arrival="42.00" arrivalLane="36_4way_13to4way_19_0" arrivalPos="85.60" arrivalSpeed="13.28" duration="24.00" routeLength="280.50" waitingTime="0.00" waitingCount="0" stopTime="0.00" timeLoss="3.69" rerouteNo="0" devices="tripinfo_45" vType="DEFAULT_VEHTYPE" speedFactor="1.00" vaporized=""/>
    <tripinfo id="58" depart="23.00" departLane="46_4way_25to4way_19_0" departPos="5.10" departSpeed="0.00" departDelay="0.26" arrival="43.00" arrivalLane="13_4way_19to3way_18_0" arrivalPos="85.60" arrivalSpeed="11.80" duration="20.00" routeLength="175.13" waitingTime="0.00" waitingCount="0" stopTime="0.00" timeLoss="4.79" rerouteNo="0" devices="tripinfo_58" vType="DEFAULT_VEHTYPE" speedFactor="0.93" vaporized=""/>
    <tripinfo id="68" depart="27.00" departLane="33_4way_16to4way_10_0" departPos="5.10" departSpeed="0.00" departDelay="0.34" arrival="43.00" arrivalLane="31_4way_10to3way_4_0" arrivalPos="85.60" arrivalSpeed="14.13" duration="16.00" routeLength="180.50" waitingTime="0.00" waitingCount="0" stopTime="0.00" timeLoss="3.59" rerouteNo="0" devices="tripinfo_68" vType="DEFAULT_VEHTYPE" speedFactor="1.09" vaporized=""/>
    <tripinfo id="30" depart="12.00" departLane="22_3way_4to3way_3_0" departPos="5.10" departSpeed="0.00" departDelay="0.24" arrival="44.00" arrivalLane="42_4way_15to4way_21_0" arrivalPos="85.60" arrivalSpeed="14.16" duration="32.00" routeLength="375.13" waitingTime="0.00" waitingCount="0" stopTime="0.00" timeLoss="5.62" rerouteNo="0" devices="tripinfo_30" vType="DEFAULT_VEHTYPE" speedFactor="1.05" vaporized=""/>
    <tripinfo id="88" depart="35.00" departLane="36_4way_19to4way_13_0" departPos="5.10" departSpeed="0.00" departDelay="0.49" arrival="44.00" arrivalLane="36_4way_19to4way_13_0" arrivalPos="85.60" arrivalSpeed="14.57" duration="9.00" routeLength="80.50" waitingTime="0.00" waitingCount="0" stopTime="0.00" timeLoss="3.37" rerouteNo="0" devices="tripinfo_88" vType="DEFAULT_VEHTYPE" speedFactor="1.06" vaporized=""/>
    <tripinfo id="23" depart="10.00" departLane="31_3way_4to4way_10_0" departPos="5.10" departSpeed="0.00" departDelay="0.98" arrival="46.00" arrivalLane="51_4way_22to4way_28_0" arrivalPos="85.60" arrivalSpeed="10.92" duration="36.00" routeLength="380.50" waitingTime="0.00" waitingCount="0" stopTime="0.00" timeLoss="4.30" rerouteNo="0" devices="tripinfo_23" vType="DEFAULT_VEHTYPE" speedFactor="0.87" vaporized=""/>
    <tripinfo id="31" depart="15.00" departLane="22_3way_4to3way_3_0" departPos="5.10" departSpeed="0.00" departDelay="2.84" arrival="47.00" arrivalLane="42_4way_15to4way_21_0" arrivalPos="85.60" arrivalSpeed="14.80" duration="32.00" routeLength="375.13" waitingTime="0.00" waitingCount="0" stopTime="0.00" timeLoss="6.57" rerouteNo="0" devices="tripinfo_31" vType="DEFAULT_VEHTYPE" speedFactor="1.11" vaporized=""/>
    <tripinfo id="34" depart="14.00" departLane="15_3way_2to4way_8_0" departPos="5.10" departSpeed="0.00" departDelay="0.67" arrival="47.00" arrivalLane="48_4way_20to4way_26_0" arrivalPos="85.60" arrivalSpeed="12.72" duration="33.00" routeLength="380.50" waitingTime="0.00" waitingCount="0" stopTime="0.00" timeLoss="3.98" rerouteNo="0" devices="tripinfo_34" vType="DEFAULT_VEHTYPE" speedFactor="0.96" vaporized=""/>
    <tripinfo id="37" depart="15.00" departLane="12_3way_18to3way_24_0" departPos="5.10" departSpeed="0.00" departDelay="0.49" arrival="47.00" arrivalLane="24_3way_31to3way_32_0" arrivalPos="85.60" arrivalSpeed="13.63" duration="32.00" routeLength="377.30" waitingTime="0.00" waitingCount="0" stopTime="0.00" timeLoss="3.77" rerouteNo="0" devices="tripinfo_37" vType="DEFAULT_VEHTYPE" speedFactor="0.99" vaporized=""/>
    <tripinfo id="52" depart="21.00" departLane="29_3way_33to4way_27_0" departPos="5.10" departSpeed="0.00" departDelay="0.61" arrival="49.00" arrivalLane="47_4way_21to4way_20_0" arrivalPos="85.60" arrivalSpeed="13.70" duration="28.00" routeLength="275.13" waitingTime="0.00" waitingCount="0" stopTime="0.00" timeLoss="8.14" rerouteNo="0" devices="tripinfo_52" vType="DEFAULT_VEHTYPE" speedFactor="1.03" vaporized=""/>
    <tripinfo id="80" depart="32.00" departLane="1_3way_2to3way_1_0" departPos="5.10" departSpeed="0.00" departDelay="0.63" arrival="55.00" arrivalLane="3_3way_1to4way_7_0" arrivalPos="85.60" arrivalSpeed="9.94" duration="23.00" routeLength="175.13" waitingTime="0.00" waitingCount="0" stopTime="0.00" timeLoss="5.47" rerouteNo="0" devices="tripinfo_80" vType="DEFAULT_VEHTYPE" speedFactor="0.78" vaporized=""/>
    <tripinfo id="89" depart="35.00" departLane="29_3way_33to4way_27_0" departPos="5.10" departSpeed="0.00" departDelay="0.10" arrival="55.00" arrivalLane="53_4way_27to4way_26_0" arrivalPos="85.60" arrivalSpeed="12.13" duration="20.00" routeLength="175.13" waitingTime="0.00" waitingCount="0" stopTime="0.00" timeLoss="5.67" rerouteNo="0" devices="tripinfo_89" vType="DEFAULT_VEHTYPE" speedFactor="0.93" vaporized=""/>
    <tripinfo id="97" depart="39.00" departLane="14_3way_3to3way_2_0" departPos="5.10" departSpeed="0.00" departDelay="0.97" arrival="55.00" arrivalLane="1_3way_2to3way_1_0" arrivalPos="85.60" arrivalSpeed="14.44" duration="16.00" routeLength="180.50" waitingTime="0.00" waitingCount="0" stopTime="0.00" timeLoss="3.70" rerouteNo="0" devices="tripinfo_97" vType="DEFAULT_VEHTYPE" speedFactor="1.06" vaporized=""/>
    <tripinfo id="84" depart="33.00" departLane="15_3way_2to4way_8_0" departPos="5.10" departSpeed="0.00" departDelay="0.06" arrival="57.00" arrivalLane="39_4way_14to4way_20_0" arrivalPos="85.60" arrivalSpeed="13.73" duration="24.00" routeLength="280.50" waitingTime="0.00" waitingCount="0" stopTime="0.00" timeLoss="4.18" rerouteNo="0" devices="tripinfo_84" vType="DEFAULT_VEHTYPE" speedFactor="1.06" vaporized=""/>
    <tripinfo id="93" depart="40.00" departLane="20_3way_34to3way_29_0" departPos="5.10" departSpeed="0.00" departDelay="3.53" arrival="57.00" arrivalLane="20_3way_34to3way_29_0" arrivalPos="182.40" arrivalSpeed="12.67" duration="17.00" routeLength="177.30" waitingTime="0.00" waitingCount="0" stopTime="0.00" timeLoss="3.59" rerouteNo="0" devices="tripinfo_93" vType="DEFAULT_VEHTYPE" speedFactor="1.00" vaporized=""/>
    <tripinfo id="111" depart="48.00" departLane="3_3way_1to4way_7_0" departPos="5.10" departSpeed="0.00" departDelay="4.48" arrival="58.00" arrivalLane="3_3way_1to4way_7_0" arrivalPos="85.60" arrivalSpeed="11.16" duration="10.00" routeLength="80.50" waitingTime="0.00" waitingCount="0" stopTime="0.00" timeLoss="2.37" rerouteNo="0" devices="tripinfo_111" vType="DEFAULT_VEHTYPE" speedFactor="0.84" vaporized=""/>
    <tripinfo id="40" depart="24.00" departLane="22_3way_4to3way_3_0" departPos="5.10" departSpeed="0.00" departDelay="8.32" arrival="60.00" arrivalLane="3_3way_1to4way_7_0" arrivalPos="85.60" arrivalSpeed="14.51" duration="36.00" routeLength="375.13" waitingTime="0.00" waitingCount="0" stopTime="0.00" timeLoss="10.41" rerouteNo="0" devices="tripinfo_40" vType="DEFAULT_VEHTYPE" speedFactor="1.08" vaporized=""/>
    <tripinfo id="29" depart="12.00" departLane="24_3way_31to3way_32_0" departPos="5.10" departSpeed="0.00" departDelay="0.63" arrival="61.00" arrivalLane="16_3way_29to3way_23_0" arrivalPos="85.60" arrivalSpeed="12.52" duration="49.00" routeLength="577.30" waitingTime="0.00" waitingCount="0" stopTime="0.00" timeLoss="5.09" rerouteNo="0" devices="tripinfo_29" vType="DEFAULT_VEHTYPE" speedFactor="0.95" vaporized=""/>
    <tripinfo id="123" depart="52.00" departLane="36_4way_19to4way_13_0" departPos="5.10" departSpeed="0.00" departDelay="3.77" arrival="61.00" arrivalLane="36_4way_19to4way_13_0" arrivalPos="85.60" arrivalSpeed="14.24" duration="9.00" routeLength="80.50" waitingTime="0.00" waitingCount="0" stopTime="0.00" timeLoss="3.33" rerouteNo="0" devices="tripinfo_123" vType="DEFAULT_VEHTYPE" speedFactor="1.06" vaporized=""/>
    <tripinfo id="103" depart="41.00" departLane="18_3way_24to3way_31_0" departPos="5.10" departSpeed="0.00" departDelay="0.61" arrival="63.00" arrivalLane="24_3way_31to3way_32_0" arrivalPos="85.60" arrivalSpeed="14.65" duration="22.00" routeLength="277.30" waitingTime="0.00" waitingCount="0" stopTime="0.00" timeLoss="4.43" rerouteNo="0" devices="tripinfo_103" vType="DEFAULT_VEHTYPE" speedFactor="1.15" vaporized=""/>
    <tripinfo id="122" depart="48.00" departLane="23_3way_3to4way_9_0" departPos="5.10" departSpeed="0.00" departDelay="0.16" arrival="66.00" arrivalLane="34_4way_9to4way_10_0" arrivalPos="85.60" arrivalSpeed="16.00" duration="18.00" routeLength="175.13" waitingTime="0.00" waitingCount="0" stopTime="0.00" timeLoss="6.45" rerouteNo="0" devices="tripinfo_122" vType="DEFAULT_VEHTYPE" speedFactor="1.20" vaporized=""/>
    <tripinfo id="144" depart="57.00" departLane="51_4way_22to4way_28_0" departPos="5.10" departSpeed="0.00" departDelay="0.54" arrival="66.00" arrivalLane="51_4way_22to4way_28_0" arrivalPos="85.60" arrivalSpeed="13.69" duration="9.00" routeLength="80.50" waitingTime="0.00" waitingCount="0" stopTime="0.00" timeLoss="3.32" rerouteNo="0" devices="tripinfo_144" vType="DEFAULT_VEHTYPE" speedFactor="1.07" vaporized=""/>
    <tripinfo id="22" depart="9.00" departLane="7_3way_12to3way_18_0" departPos="5.10" departSpeed="0.00" departDelay="0.37" arrival="70.00" arrivalLane="13_3way_18to4way_19_0" arrivalPos="85.60" arrivalSpeed="5.69" duration="61.00" routeLength="175.13" waitingTime="38.00" waitingCount="1" stopTime="0.00" timeLoss="47.82" rerouteNo="0" devices="tripinfo_22" vType="DEFAULT_VEHTYPE" speedFactor="1.00" vaporized=""/>
    <tripinfo id="44" depart="20.00" departLane="10_3way_17to3way_23_0" departPos="5.10" departSpeed="0.00" departDelay="2.75" arrival="70.00" arrivalLane="28_3way_34to3way_33_0" arrivalPos="85.60" arrivalSpeed="10.04" duration="50.00" routeLength="483.70" waitingTime="0.00" waitingCount="0" stopTime="0.00" timeLoss="4.72" rerouteNo="0" devices="tripinfo_44" vType="DEFAULT_VEHTYPE" speedFactor="0.78" vaporized=""/>
    <tripinfo id="62" depart="25.00" departLane="28_3way_33to3way_34_0" departPos="5.10" departSpeed="0.00" departDelay="0.69" arrival="70.00" arrivalLane="4_3way_17to3way_11_0" arrivalPos="85.60" arrivalSpeed="13.54" duration="45.00" routeLength="577.30" waitingTime="0.00" waitingCount="0" stopTime="0.00" timeLoss="5.17" rerouteNo="0" devices="tripinfo_62" vType="DEFAULT_VEHTYPE" speedFactor="1.05" vaporized=""/>
    <tripinfo id="135" depart="53.00" departLane="29_4way_27to3way_33_0" departPos="5.10" departSpeed="0.00" departDelay="0.07" arrival="70.00" arrivalLane="29_4way_27to3way_33_0" arrivalPos="85.60" arrivalSpeed="5.65" duration="17.00" routeLength="80.50" waitingTime="3.00" waitingCount="1" stopTime="0.00" timeLoss="11.59" rerouteNo="0" devices="tripinfo_135" vType="DEFAULT_VEHTYPE" speedFactor="1.09" vaporized=""/>
    <tripinfo id="60" depart="27.00" departLane="29_3way_33to4way_27_0" departPos="5.10" departSpeed="0.00" departDelay="3.47" arrival="71.00" arrivalLane="38_4way_15to4way_14_0" arrivalPos="85.60" arrivalSpeed="6.21" duration="44.00" routeLength="375.13" waitingTime="4.00" waitingCount="1" stopTime="0.00" timeLoss="18.61" rerouteNo="0" devices="tripinfo_60" vType="DEFAULT_VEHTYPE" speedFactor="1.12" vaporized=""/>
    <tripinfo id="157" depart="62.00" departLane="39_4way_20to4way_14_0" departPos="5.10" departSpeed="0.00" departDelay="0.44" arrival="72.00" arrivalLane="39_4way_20to4way_14_0" arrivalPos="85.60" arrivalSpeed="12.87" duration="10.00" routeLength="80.50" waitingTime="0.00" waitingCount="0" stopTime="0.00" timeLoss="3.26" rerouteNo="0" devices="tripinfo_157" vType="DEFAULT_VEHTYPE" speedFactor="0.94" vaporized=""/>
    <tripinfo id="127" depart="57.00" departLane="38_4way_15to4way_14_0" departPos="5.10" departSpeed="0.00" departDelay="7.20" arrival="73.00" arrivalLane="38_4way_15to4way_14_0" arrivalPos="85.60" arrivalSpeed="7.76" duration="16.00" routeLength="80.50" waitingTime="0.00" waitingCount="0" stopTime="0.00" timeLoss="9.82" rerouteNo="0" devices="tripinfo_127" vType="DEFAULT_VEHTYPE" speedFactor="1.00" vaporized=""/>
    <tripinfo id="132" depart="52.00" departLane="51_4way_22to4way_28_0" departPos="5.10" departSpeed="0.00" departDelay="0.24" arrival="73.00" arrivalLane="21_4way_28to3way_29_0" arrivalPos="85.60" arrivalSpeed="11.22" duration="21.00" routeLength="175.13" waitingTime="0.00" waitingCount="0" stopTime="0.00" timeLoss="4.90" rerouteNo="0" devices="tripinfo_132" vType="DEFAULT_VEHTYPE" speedFactor="0.86" vaporized=""/>
    <tripinfo id="153" depart="60.00" departLane="53_4way_26to4way_27_0" departPos="5.10" departSpeed="0.00" departDelay="0.01" arrival="73.00" arrivalLane="53_4way_26to4way_27_0" arrivalPos="85.60" arrivalSpeed="9.07" duration="13.00" routeLength="80.50" waitingTime="0.00" waitingCount="0" stopTime="0.00" timeLoss="5.93" rerouteNo="0" devices="tripinfo_153" vType="DEFAULT_VEHTYPE" speedFactor="0.90" vaporized=""/>
    <tripinfo id="94" depart="37.00" departLane="7_3way_18to3way_12_0" departPos="5.10" departSpeed="0.00" departDelay="0.14" arrival="74.00" arrivalLane="1_3way_1to3way_2_0" arrivalPos="85.60" arrivalSpeed="14.00" duration="37.00" routeLength="483.70" waitingTime="0.00" waitingCount="0" stopTime="0.00" timeLoss="4.73" rerouteNo="0" devices="tripinfo_94" vType="DEFAULT_VEHTYPE" speedFactor="1.08" vaporized=""/>
    <tripinfo id="61" depart="24.00" departLane="12_3way_18to3way_24_0" departPos="5.10" departSpeed="0.00" departDelay="0.08" arrival="75.00" arrivalLane="19_3way_24to4way_25_0" arrivalPos="85.60" arrivalSpeed="9.27" duration="51.00" routeLength="175.13" waitingTime="27.00" waitingCount="1" stopTime="0.00" timeLoss="37.72" rerouteNo="0" devices="tripinfo_61" vType="DEFAULT_VEHTYPE" speedFactor="1.01" vaporized=""/>
    <tripinfo id="170" depart="67.00" departLane="35_4way_14to4way_13_0" departPos="5.10" departSpeed="0.00" departDelay="0.34" arrival="76.00" arrivalLane="35_4way_14to4way_13_0" arrivalPos="85.60" arrivalSpeed="13.34" duration="9.00" routeLength="80.50" waitingTime="0.00" waitingCount="0" stopTime="0.00" timeLoss="2.94" rerouteNo="0" devices="tripinfo_170" vType="DEFAULT_VEHTYPE" speedFactor="1.00" vaporized=""/>
    <tripinfo id="17" depart="7.00" departLane="39_4way_14to4way_20_0" departPos="5.10" departSpeed="0.00" departDelay="0.33" arrival="77.00" arrivalLane="49_4way_21to4way_22_0" arrivalPos="85.60" arrivalSpeed="14.33" duration="70.00" routeLength="275.13" waitingTime="39.00" waitingCount="1" stopTime="0.00" timeLoss="50.07" rerouteNo="0" devices="tripinfo_17" vType="DEFAULT_VEHTYPE" speedFactor="1.04" vaporized=""/>
    <tripinfo id="56" depart="22.00" departLane="37_4way_7to4way_13_0" departPos="5.10" departSpeed="0.00" departDelay="0.04" arrival="77.00" arrivalLane="52_4way_25to4way_26_0" arrivalPos="85.60" arrivalSpeed="11.22" duration="55.00" routeLength="375.13" waitingTime="14.00" waitingCount="1" stopTime="0.00" timeLoss="27.50" rerouteNo="0" devices="tripinfo_56" vType="DEFAULT_VEHTYPE" speedFactor="1.02" vaporized=""/>
    <tripinfo id="95" depart="41.00" departLane="48_4way_20to4way_26_0" departPos="5.10" departSpeed="0.00" departDelay="3.75" arrival="77.00" arrivalLane="26_3way_32to3way_33_0" arrivalPos="85.60" arrivalSpeed="11.95" duration="36.00" routeLength="275.13" waitingTime="4.00" waitingCount="1" stopTime="0.00" timeLoss="12.74" rerouteNo="0" devices="tripinfo_95" vType="DEFAULT_VEHTYPE" speedFactor="0.88" vaporized=""/>
    <tripinfo id="5" depart="2.00" departLane="37_4way_7to4way_13_0" departPos="5.10" departSpeed="0.00" departDelay="0.04" arrival="78.00" arrivalLane="38_4way_14to4way_15_0" arrivalPos="85.60" arrivalSpeed="12.02" duration="76.00" routeLength="275.13" waitingTime="41.00" waitingCount="1" stopTime="0.00" timeLoss="53.31" rerouteNo="0" devices="tripinfo_5" vType="DEFAULT_VEHTYPE" speedFactor="0.94" vaporized=""/>
    <tripinfo id="14" depart="6.00" departLane="43_4way_9to4way_15_0" departPos="5.10" departSpeed="0.00" departDelay="0.51" arrival="78.00" arrivalLane="28_3way_33to3way_34_0" arrivalPos="85.60" arrivalSpeed="12.56" duration="72.00" routeLength="475.13" waitingTime="24.00" waitingCount="1" stopTime="0.00" timeLoss="34.35" rerouteNo="0" devices="tripinfo_14" vType="DEFAULT_VEHTYPE" speedFactor="0.95" vaporized=""/>
    <tripinfo id="104" depart="44.00" departLane="47_4way_21to4way_20_0" departPos="5.10" departSpeed="0.00" departDelay="3.22" arrival="78.00" arrivalLane="45_4way_20to4way_19_0" arrivalPos="85.60" arrivalSpeed="13.15" duration="34.00" routeLength="180.50" waitingTime="11.00" waitingCount="1" stopTime="0.00" timeLoss="19.50" rerouteNo="0" devices="tripinfo_104" vType="DEFAULT_VEHTYPE" speedFactor="0.95" vaporized=""/>
    <tripinfo id="50" depart="20.00" departLane="17_4way_22to3way_23_0" departPos="5.10" departSpeed="0.00" departDelay="0.39" arrival="79.00" arrivalLane="16_3way_23to3way_29_0" arrivalPos="85.60" arrivalSpeed="14.00" duration="59.00" routeLength="180.29" waitingTime="36.00" waitingCount="1" stopTime="0.00" timeLoss="44.60" rerouteNo="0" devices="tripinfo_50" vType="DEFAULT_VEHTYPE" speedFactor="1.01" vaporized=""/>
    <tripinfo id="100" depart="40.00" departLane="17_3way_23to4way_22_0" departPos="5.10" departSpeed="0.00" departDelay="0.79" arrival="79.00" arrivalLane="51_4way_22to4way_28_0" arrivalPos="85.60" arrivalSpeed="16.46" duration="39.00" routeLength="175.13" waitingTime="17.00" waitingCount="1" stopTime="0.00" timeLoss="27.59" rerouteNo="0" devices="tripinfo_100" vType="DEFAULT_VEHTYPE" speedFactor="1.20" vaporized=""/>
    <tripinfo id="72" depart="29.00" departLane="50_4way_27to4way_21_0" departPos="5.10" departSpeed="0.00" departDelay="0.77" arrival="80.00" arrivalLane="22_3way_3to3way_4_0" arrivalPos="85.60" arrivalSpeed="15.88" duration="51.00" routeLength="480.29" waitingTime="9.00" waitingCount="1" stopTime="0.00" timeLoss="20.54" rerouteNo="0" devices="tripinfo_72" vType="DEFAULT_VEHTYPE" speedFactor="1.15" vaporized=""/>
    <tripinfo id="159" depart="63.00" departLane="41_4way_15to4way_16_0" departPos="5.10" departSpeed="0.00" departDelay="0.66" arrival="80.00" arrivalLane="11_4way_16to3way_17_0" arrivalPos="85.60" arrivalSpeed="12.46" duration="17.00" routeLength="180.50" waitingTime="0.00" waitingCount="0" stopTime="0.00" timeLoss="3.87" rerouteNo="0" devices="tripinfo_159" vType="DEFAULT_VEHTYPE" speedFactor="0.99" vaporized=""/>
    <tripinfo id="91" depart="38.00" departLane="17_4way_22to3way_23_0" departPos="5.10" departSpeed="0.00" departDelay="2.32" arrival="81.00" arrivalLane="10_3way_23to3way_17_0" arrivalPos="85.60" arrivalSpeed="14.18" duration="43.00" routeLength="175.13" waitingTime="19.00" waitingCount="1" stopTime="0.00" timeLoss="29.89" rerouteNo="0" devices="tripinfo_91" vType="DEFAULT_VEHTYPE" speedFactor="1.04" vaporized=""/>
    <tripinfo id="106" depart="42.00" departLane="42_4way_15to4way_21_0" departPos="5.10" departSpeed="0.00" departDelay="0.44" arrival="81.00" arrivalLane="28_3way_33to3way_34_0" arrivalPos="85.60" arrivalSpeed="15.92" duration="39.00" routeLength="375.13" waitingTime="1.00" waitingCount="1" stopTime="0.00" timeLoss="14.45" rerouteNo="0" devices="tripinfo_106" vType="DEFAULT_VEHTYPE" speedFactor="1.16" vaporized=""/>
    <tripinfo id="179" depart="71.00" departLane="56_4way_8to4way_9_0" departPos="5.10" departSpeed="0.00" departDelay="0.81" arrival="81.00" arrivalLane="56_4way_8to4way_9_0" arrivalPos="85.60" arrivalSpeed="12.40" duration="10.00" routeLength="80.50" waitingTime="0.00" waitingCount="0" stopTime="0.00" timeLoss="3.23" rerouteNo="0" devices="tripinfo_179" vType="DEFAULT_VEHTYPE" speedFactor="0.97" vaporized=""/>
    <tripinfo id="12" depart="5.00" departLane="17_4way_22to3way_23_0" departPos="5.10" departSpeed="0.00" departDelay="0.29" arrival="83.00" arrivalLane="4_3way_17to3way_11_0" arrivalPos="85.60" arrivalSpeed="15.09" duration="78.00" routeLength="275.13" waitingTime="49.00" waitingCount="1" stopTime="0.00" timeLoss="59.39" rerouteNo="0" devices="tripinfo_12" vType="DEFAULT_VEHTYPE" speedFactor="1.16" vaporized=""/>
    <tripinfo id="25" depart="10.00" departLane="30_3way_34to4way_28_0" departPos="5.10" departSpeed="0.00" departDelay="0.20" arrival="83.00" arrivalLane="56_4way_9to4way_8_0" arrivalPos="85.60" arrivalSpeed="11.92" duration="73.00" routeLength="575.13" waitingTime="17.00" waitingCount="1" stopTime="0.00" timeLoss="28.62" rerouteNo="0" devices="tripinfo_25" vType="DEFAULT_VEHTYPE" speedFactor="0.95" vaporized=""/>
    <tripinfo id="75" depart="30.00" departLane="7_3way_12to3way_18_0" departPos="5.10" departSpeed="0.00" departDelay="0.59" arrival="83.00" arrivalLane="45_4way_19to4way_20_0" arrivalPos="85.60" arrivalSpeed="13.98" duration="53.00" routeLength="275.13" waitingTime="20.00" waitingCount="1" stopTime="0.00" timeLoss="34.07" rerouteNo="0" devices="tripinfo_75" vType="DEFAULT_VEHTYPE" speedFactor="1.09" vaporized=""/>
    <tripinfo id="107" depart="42.00" departLane="17_4way_22to3way_23_0" departPos="5.10" departSpeed="0.00" departDelay="0.04" arrival="83.00" arrivalLane="10_3way_23to3way_17_0" arrivalPos="85.60" arrivalSpeed="15.22" duration="41.00" routeLength="175.13" waitingTime="16.00" waitingCount="1" stopTime="0.00" timeLoss="28.60" rerouteNo="0" devices="tripinfo_107" vType="DEFAULT_VEHTYPE" speedFactor="1.10" vaporized=""/>
    <tripinfo id="150" depart="59.00" departLane="6_3way_11to4way_10_0" departPos="5.10" departSpeed="0.00" departDelay="0.18" arrival="83.00" arrivalLane="34_4way_10to4way_9_0" arrivalPos="85.60" arrivalSpeed="12.25" duration="24.00" routeLength="180.50" waitingTime="0.00" waitingCount="0" stopTime="0.00" timeLoss="9.39" rerouteNo="0" devices="tripinfo_150" vType="DEFAULT_VEHTYPE" speedFactor="0.92" vaporized=""/>
    <tripinfo id="69" depart="31.00" departLane="51_4way_28to4way_22_0" departPos="5.10" departSpeed="0.00" departDelay="3.94" arrival="84.00" arrivalLane="47_4way_21to4way_20_0" arrivalPos="85.60" arrivalSpeed="10.89" duration="53.00" routeLength="275.13" waitingTime="15.00" waitingCount="1" stopTime="0.00" timeLoss="27.44" rerouteNo="0" devices="tripinfo_69" vType="DEFAULT_VEHTYPE" speedFactor="0.82" vaporized=""/>
    <tripinfo id="7" depart="3.00" departLane="42_4way_21to4way_15_0" departPos="5.10" departSpeed="0.00" departDelay="0.25" arrival="85.00" arrivalLane="1_3way_2to3way_1_0" arrivalPos="85.60" arrivalSpeed="13.15" duration="82.00" routeLength="475.13" waitingTime="35.00" waitingCount="1" stopTime="0.00" timeLoss="45.05" rerouteNo="0" devices="tripinfo_7" vType="DEFAULT_VEHTYPE" speedFactor="0.95" vaporized=""/>
    <tripinfo id="47" depart="19.00" departLane="30_3way_34to4way_28_0" departPos="5.10" departSpeed="0.00" departDelay="0.57" arrival="85.00" arrivalLane="38_4way_15to4way_14_0" arrivalPos="85.60" arrivalSpeed="11.21" duration="66.00" routeLength="475.13" waitingTime="12.00" waitingCount="1" stopTime="0.00" timeLoss="26.70" rerouteNo="0" devices="tripinfo_47" vType="DEFAULT_VEHTYPE" speedFactor="0.90" vaporized=""/>