<?xml version="1.0" encoding="UTF-8"?>

<!-- generated on 2023-07-05 05:34:36 by Eclipse SUMO sumo Version 1.12.0
<configuration xmlns:xsi="http://www.w3.org/2001/XMLSchema-instance" xsi:noNamespaceSchemaLocation="http://sumo.dlr.de/xsd/sumoConfiguration.xsd">

    <input>
        <net-file value="../../data_generation/sq.net.xml"/>
        <route-files value="../../data_generation/sq.rou.xml"/>
    </input>

    <output>
        <tripinfo-output value="tripinfo.xml"/>
        <statistic-output value="statistic.xml"/>
    </output>

    <time>
        <begin value="0"/>
        <end value="3600"/>
    </time>

    <processing>
        <time-to-teleport value="-1"/>
    </processing>

    <traci_server>
        <remote-port value="54101"/>
    </traci_server>

    <random_number>
        <seed value="1395"/>
    </random_number>

    <gui_only>
        <gui-settings-file value="../../data_generation/view_HY_0402.xml"/>
    </gui_only>

</configuration>
-->

<tripinfos xmlns:xsi="http://www.w3.org/2001/XMLSchema-instance" xsi:noNamespaceSchemaLocation="http://sumo.dlr.de/xsd/tripinfo_file.xsd">
    <tripinfo id="22" depart="3.00" departLane="478_4way_291to4way_271_0" departPos="5.10" departSpeed="0.00" departDelay="0.36" arrival="20.00" arrivalLane="478_4way_291to4way_271_0" arrivalPos="185.60" arrivalSpeed="12.66" duration="17.00" routeLength="180.50" waitingTime="0.00" waitingCount="0" stopTime="0.00" timeLoss="3.66" rerouteNo="0" devices="tripinfo_22" vType="DEFAULT_VEHTYPE" speedFactor="1.00" vaporized=""/>
    <tripinfo id="160" depart="20.00" departLane="90_3way_382to4way_362_0" departPos="5.10" departSpeed="0.00" departDelay="0.80" arrival="39.00" arrivalLane="90_3way_382to4way_362_0" arrivalPos="185.60" arrivalSpeed="11.90" duration="19.00" routeLength="180.50" waitingTime="0.00" waitingCount="0" stopTime="0.00" timeLoss="3.68" rerouteNo="0" devices="tripinfo_160" vType="DEFAULT_VEHTYPE" speedFactor="0.88" vaporized=""/>
    <tripinfo id="167" depart="21.00" departLane="697_4way_54to4way_74_0" departPos="5.10" departSpeed="0.00" departDelay="0.96" arrival="40.00" arrivalLane="697_4way_54to4way_74_0" arrivalPos="185.60" arrivalSpeed="11.70" duration="19.00" routeLength="180.50" waitingTime="0.00" waitingCount="0" stopTime="0.00" timeLoss="3.21" rerouteNo="0" devices="tripinfo_167" vType="DEFAULT_VEHTYPE" speedFactor="0.85" vaporized=""/>
    <tripinfo id="198" depart="24.00" departLane="540_4way_324to4way_304_0" departPos="5.10" departSpeed="0.00" departDelay="0.24" arrival="43.00" arrivalLane="540_4way_324to4way_304_0" arrivalPos="185.60" arrivalSpeed="12.05" duration="19.00" routeLength="180.50" waitingTime="0.00" waitingCount="0" stopTime="0.00" timeLoss="3.23" rerouteNo="0" devices="tripinfo_198" vType="DEFAULT_VEHTYPE" speedFactor="0.87" vaporized=""/>
    <tripinfo id="148" depart="18.00" departLane="118_4way_375to3way_395_0" departPos="5.10" departSpeed="0.00" departDelay="0.24" arrival="51.00" arrivalLane="117_3way_395to3way_396_0" arrivalPos="185.60" arrivalSpeed="14.30" duration="33.00" routeLength="375.13" waitingTime="0.00" waitingCount="0" stopTime="0.00" timeLoss="6.30" rerouteNo="0" devices="tripinfo_148" vType="DEFAULT_VEHTYPE" speedFactor="1.07" vaporized=""/>
    <tripinfo id="303" depart="37.00" departLane="148_4way_102to4way_103_0" departPos="5.10" departSpeed="0.00" departDelay="0.64" arrival="54.00" arrivalLane="148_4way_102to4way_103_0" arrivalPos="185.60" arrivalSpeed="14.03" duration="17.00" routeLength="180.50" waitingTime="0.00" waitingCount="0" stopTime="0.00" timeLoss="3.94" rerouteNo="0" devices="tripinfo_303" vType="DEFAULT_VEHTYPE" speedFactor="1.02" vaporized=""/>
    <tripinfo id="445" depart="54.00" departLane="465_4way_267to4way_266_0" departPos="5.10" departSpeed="0.00" departDelay="0.60" arrival="71.00" arrivalLane="465_4way_267to4way_266_0" arrivalPos="185.60" arrivalSpeed="13.56" duration="17.00" routeLength="180.50" waitingTime="0.00" waitingCount="0" stopTime="0.00" timeLoss="3.62" rerouteNo="0" devices="tripinfo_445" vType="DEFAULT_VEHTYPE" speedFactor="1.02" vaporized=""/>
    <tripinfo id="324" depart="39.00" departLane="120_3way_396to4way_376_0" departPos="5.10" departSpeed="0.00" departDelay="0.12" arrival="72.00" arrivalLane="666_4way_376to4way_375_0" arrivalPos="185.60" arrivalSpeed="14.01" duration="33.00" routeLength="375.13" waitingTime="0.00" waitingCount="0" stopTime="0.00" timeLoss="6.03" rerouteNo="0" devices="tripinfo_324" vType="DEFAULT_VEHTYPE" speedFactor="1.05" vaporized=""/>
    <tripinfo id="416" depart="50.00" departLane="551_4way_31to4way_32_0" departPos="5.10" departSpeed="0.00" departDelay="0.08" arrival="81.00" arrivalLane="570_4way_32to4way_33_0" arrivalPos="185.60" arrivalSpeed="14.24" duration="31.00" routeLength="380.50" waitingTime="0.00" waitingCount="0" stopTime="0.00" timeLoss="4.55" rerouteNo="0" devices="tripinfo_416" vType="DEFAULT_VEHTYPE" speedFactor="1.04" vaporized=""/>
    <tripinfo id="326" depart="40.00" departLane="18_3way_120to4way_121_0" departPos="5.10" departSpeed="0.00" departDelay="0.88" arrival="84.00" arrivalLane="198_4way_121to4way_122_0" arrivalPos="185.60" arrivalSpeed="13.46" duration="44.00" routeLength="380.50" waitingTime="7.00" waitingCount="1" stopTime="0.00" timeLoss="16.56" rerouteNo="0" devices="tripinfo_326" vType="DEFAULT_VEHTYPE" speedFactor="1.00" vaporized=""/>
    <tripinfo id="158" depart="19.00" departLane="166_4way_109to4way_108_0" departPos="5.10" departSpeed="0.00" departDelay="0.04" arrival="85.00" arrivalLane="160_4way_107to4way_106_0" arrivalPos="185.60" arrivalSpeed="12.26" duration="66.00" routeLength="580.50" waitingTime="12.00" waitingCount="1" stopTime="0.00" timeLoss="21.78" rerouteNo="0" devices="tripinfo_158" vType="DEFAULT_VEHTYPE" speedFactor="0.96" vaporized=""/>
    <tripinfo id="9" depart="2.00" departLane="733_4way_76to4way_75_0" departPos="5.10" departSpeed="0.00" departDelay="0.92" arrival="86.00" arrivalLane="731_4way_75to4way_74_0" arrivalPos="185.60" arrivalSpeed="11.95" duration="84.00" routeLength="380.50" waitingTime="44.00" waitingCount="1" stopTime="0.00" timeLoss="53.16" rerouteNo="0" devices="tripinfo_9" vType="DEFAULT_VEHTYPE" speedFactor="0.91" vaporized=""/>
    <tripinfo id="232" depart="28.00" departLane="8_3way_80to3way_100_0" departPos="5.10" departSpeed="0.00" departDelay="0.16" arrival="86.00" arrivalLane="145_4way_101to4way_102_0" arrivalPos="185.60" arrivalSpeed="13.91" duration="58.00" routeLength="575.13" waitingTime="5.00" waitingCount="1" stopTime="0.00" timeLoss="17.47" rerouteNo="0" devices="tripinfo_232" vType="DEFAULT_VEHTYPE" speedFactor="1.06" vaporized=""/>
    <tripinfo id="18" depart="6.00" departLane="359_4way_230to4way_210_0" departPos="5.10" departSpeed="0.00" departDelay="3.84" arrival="87.00" arrivalLane="322_4way_210to4way_190_0" arrivalPos="185.60" arrivalSpeed="12.54" duration="81.00" routeLength="380.50" waitingTime="41.00" waitingCount="1" stopTime="0.00" timeLoss="52.30" rerouteNo="0" devices="tripinfo_18" vType="DEFAULT_VEHTYPE" speedFactor="0.96" vaporized=""/>
    <tripinfo id="164" depart="20.00" departLane="207_4way_145to4way_125_0" departPos="5.10" departSpeed="0.00" departDelay="0.32" arrival="87.00" arrivalLane="152_4way_123to4way_103_0" arrivalPos="185.60" arrivalSpeed="15.10" duration="67.00" routeLength="774.93" waitingTime="1.00" waitingCount="1" stopTime="0.00" timeLoss="14.90" rerouteNo="0" devices="tripinfo_164" vType="DEFAULT_VEHTYPE" speedFactor="1.11" vaporized=""/>
    <tripinfo id="610" depart="74.00" departLane="413_4way_238to4way_258_0" departPos="5.10" departSpeed="0.00" departDelay="0.80" arrival="92.00" arrivalLane="413_4way_238to4way_258_0" arrivalPos="185.60" arrivalSpeed="12.41" duration="18.00" routeLength="180.50" waitingTime="0.00" waitingCount="0" stopTime="0.00" timeLoss="3.44" rerouteNo="0" devices="tripinfo_610" vType="DEFAULT_VEHTYPE" speedFactor="0.93" vaporized=""/>
    <tripinfo id="531" depart="64.00" departLane="124_3way_5to3way_4_0" departPos="5.10" departSpeed="0.00" departDelay="0.28" arrival="93.00" arrivalLane="69_3way_4to3way_3_0" arrivalPos="185.60" arrivalSpeed="14.64" duration="29.00" routeLength="380.50" waitingTime="0.00" waitingCount="0" stopTime="0.00" timeLoss="4.03" rerouteNo="0" devices="tripinfo_531" vType="DEFAULT_VEHTYPE" speedFactor="1.11" vaporized=""/>
    <tripinfo id="320" depart="39.00" departLane="409_4way_237to4way_236_0" departPos="5.10" departSpeed="0.00" departDelay="0.60" arrival="94.00" arrivalLane="408_4way_235to4way_255_0" arrivalPos="185.60" arrivalSpeed="11.52" duration="55.00" routeLength="575.13" waitingTime="0.00" waitingCount="0" stopTime="0.00" timeLoss="6.76" rerouteNo="0" devices="tripinfo_320" vType="DEFAULT_VEHTYPE" speedFactor="0.88" vaporized=""/>
    <tripinfo id="478" depart="58.00" departLane="315_4way_188to4way_187_0" departPos="5.10" departSpeed="0.00" departDelay="0.64" arrival="110.00" arrivalLane="351_4way_207to4way_227_0" arrivalPos="185.60" arrivalSpeed="12.26" duration="52.00" routeLength="575.13" waitingTime="0.00" waitingCount="0" stopTime="0.00" timeLoss="7.75" rerouteNo="0" devices="tripinfo_478" vType="DEFAULT_VEHTYPE" speedFactor="0.96" vaporized=""/>
    <tripinfo id="493" depart="60.00" departLane="261_4way_155to4way_156_0" departPos="5.10" departSpeed="0.00" departDelay="0.84" arrival="112.00" arrivalLane="191_4way_136to4way_116_0" arrivalPos="185.60" arrivalSpeed="12.09" duration="52.00" routeLength="575.13" waitingTime="0.00" waitingCount="0" stopTime="0.00" timeLoss="6.80" rerouteNo="0" devices="tripinfo_493" vType="DEFAULT_VEHTYPE" speedFactor="0.94" vaporized=""/>
    <tripinfo id="495" depart="62.00" departLane="676_4way_44to4way_45_0" departPos="5.10" departSpeed="0.00" departDelay="2.60" arrival="112.00" arrivalLane="129_4way_25to3way_5_0" arrivalPos="185.60" arrivalSpeed="12.65" duration="50.00" routeLength="575.13" waitingTime="0.00" waitingCount="0" stopTime="0.00" timeLoss="7.06" rerouteNo="0" devices="tripinfo_495" vType="DEFAULT_VEHTYPE" speedFactor="1.00" vaporized=""/>
    <tripinfo id="712" depart="86.00" departLane="418_4way_242to4way_243_0" departPos="5.10" departSpeed="0.00" departDelay="0.56" arrival="120.00" arrivalLane="382_4way_243to4way_223_0" arrivalPos="185.60" arrivalSpeed="14.01" duration="34.00" routeLength="375.13" waitingTime="0.00" waitingCount="0" stopTime="0.00" timeLoss="6.65" rerouteNo="0" devices="tripinfo_712" vType="DEFAULT_VEHTYPE" speedFactor="1.03" vaporized=""/>
    <tripinfo id="906" depart="109.00" departLane="669_4way_58to4way_38_0" departPos="5.10" departSpeed="0.00" departDelay="0.28" arrival="126.00" arrivalLane="669_4way_58to4way_38_0" arrivalPos="185.60" arrivalSpeed="12.93" duration="17.00" routeLength="180.50" waitingTime="0.00" waitingCount="0" stopTime="0.00" timeLoss="3.29" rerouteNo="0" devices="tripinfo_906" vType="DEFAULT_VEHTYPE" speedFactor="0.95" vaporized=""/>
    <tripinfo id="956" depart="115.00" departLane="152_4way_103to4way_123_0" departPos="5.10" departSpeed="0.00" departDelay="0.28" arrival="133.00" arrivalLane="152_4way_103to4way_123_0" arrivalPos="185.60" arrivalSpeed="12.60" duration="18.00" routeLength="180.50" waitingTime="0.00" waitingCount="0" stopTime="0.00" timeLoss="3.44" rerouteNo="0" devices="tripinfo_956" vType="DEFAULT_VEHTYPE" speedFactor="0.94" vaporized=""/>
    <tripinfo id="118" depart="15.00" departLane="745_4way_87to4way_86_0" departPos="5.10" departSpeed="0.00" departDelay="0.84" arrival="135.00" arrivalLane="159_4way_85to4way_105_0" arrivalPos="185.60" arrivalSpeed="9.05" duration="120.00" routeLength="575.13" waitingTime="60.00" waitingCount="2" stopTime="0.00" timeLoss="79.28" rerouteNo="0" devices="tripinfo_118" vType="DEFAULT_VEHTYPE" speedFactor="1.05" vaporized=""/>
    <tripinfo id="973" depart="119.00" departLane="69_3way_4to3way_3_0" departPos="5.10" departSpeed="0.00" departDelay="2.24" arrival="136.00" arrivalLane="69_3way_4to3way_3_0" arrivalPos="185.60" arrivalSpeed="12.71" duration="17.00" routeLength="180.50" waitingTime="0.00" waitingCount="0" stopTime="0.00" timeLoss="3.07" rerouteNo="0" devices="tripinfo_973" vType="DEFAULT_VEHTYPE" speedFactor="0.93" vaporized=""/>
    <tripinfo id="790" depart="95.00" departLane="600_4way_335to4way_334_0" departPos="5.10" departSpeed="0.00" departDelay="0.20" arrival="142.00" arrivalLane="599_4way_333to4way_353_0" arrivalPos="185.60" arrivalSpeed="14.51" duration="47.00" routeLength="575.13" waitingTime="0.00" waitingCount="0" stopTime="0.00" timeLoss="7.13" rerouteNo="0" devices="tripinfo_790" vType="DEFAULT_VEHTYPE" speedFactor="1.07" vaporized=""/>
    <tripinfo id="732" depart="88.00" departLane="633_4way_351to4way_352_0" departPos="5.10" departSpeed="0.00" departDelay="0.16" arrival="143.00" arrivalLane="635_4way_352to4way_353_0" arrivalPos="185.60" arrivalSpeed="15.83" duration="55.00" routeLength="380.50" waitingTime="20.00" waitingCount="1" stopTime="0.00" timeLoss="32.49" rerouteNo="0" devices="tripinfo_732" vType="DEFAULT_VEHTYPE" speedFactor="1.22" vaporized=""/>
    <tripinfo id="884" depart="107.00" departLane="315_4way_187to4way_188_0" departPos="5.10" departSpeed="0.00" departDelay="0.92" arrival="143.00" arrivalLane="317_4way_188to4way_189_0" arrivalPos="185.60" arrivalSpeed="11.40" duration="36.00" routeLength="380.50" waitingTime="0.00" waitingCount="0" stopTime="0.00" timeLoss="4.06" rerouteNo="0" devices="tripinfo_884" vType="DEFAULT_VEHTYPE" speedFactor="0.87" vaporized=""/>
    <tripinfo id="1047" depart="126.00" departLane="270_4way_162to4way_163_0" departPos="5.10" departSpeed="0.00" departDelay="0.36" arrival="143.00" arrivalLane="270_4way_162to4way_163_0" arrivalPos="185.60" arrivalSpeed="13.28" duration="17.00" routeLength="180.50" waitingTime="0.00" waitingCount="0" stopTime="0.00" timeLoss="3.91" rerouteNo="0" devices="tripinfo_1047" vType="DEFAULT_VEHTYPE" speedFactor="1.01" vaporized=""/>
    <tripinfo id="284" depart="35.00" departLane="196_4way_138to4way_118_0" departPos="5.10" departSpeed="0.00" departDelay="0.92" arrival="145.00" arrivalLane="187_4way_116to4way_115_0" arrivalPos="185.60" arrivalSpeed="14.67" duration="110.00" routeLength="775.13" waitingTime="44.00" waitingCount="1" stopTime="0.00" timeLoss="59.76" rerouteNo="0" devices="tripinfo_284" vType="DEFAULT_VEHTYPE" speedFactor="1.12" vaporized=""/>
    <tripinfo id="149" depart="18.00" departLane="739_4way_78to4way_98_0" departPos="5.10" departSpeed="0.00" departDelay="0.12" arrival="148.00" arrivalLane="267_4way_158to4way_178_0" arrivalPos="185.60" arrivalSpeed="8.17" duration="130.00" routeLength="980.50" waitingTime="43.00" waitingCount="1" stopTime="0.00" timeLoss="55.79" rerouteNo="0" devices="tripinfo_149" vType="DEFAULT_VEHTYPE" speedFactor="0.95" vaporized=""/>
    <tripinfo id="579" depart="70.00" departLane="108_4way_370to3way_390_0" departPos="5.10" departSpeed="0.00" departDelay="0.52" arrival="151.00" arrivalLane="111_3way_392to3way_393_0" arrivalPos="185.60" arrivalSpeed="12.26" duration="81.00" routeLength="775.13" waitingTime="2.00" waitingCount="1" stopTime="0.00" timeLoss="18.52" rerouteNo="0" devices="tripinfo_579" vType="DEFAULT_VEHTYPE" speedFactor="0.92" vaporized=""/>
    <tripinfo id="360" depart="44.00" departLane="301_4way_177to4way_197_0" departPos="5.10" departSpeed="0.00" departDelay="0.80" arrival="152.00" arrivalLane="328_4way_193to4way_213_0" arrivalPos="185.60" arrivalSpeed="13.74" duration="108.00" routeLength="1174.93" waitingTime="5.00" waitingCount="1" stopTime="0.00" timeLoss="21.82" rerouteNo="0" devices="tripinfo_360" vType="DEFAULT_VEHTYPE" speedFactor="1.01" vaporized=""/>
    <tripinfo id="672" depart="81.00" departLane="752_4way_94to4way_93_0" departPos="5.10" departSpeed="0.00" departDelay="0.36" arrival="153.00" arrivalLane="180_4way_92to4way_112_0" arrivalPos="185.60" arrivalSpeed="11.69" duration="72.00" routeLength="575.13" waitingTime="14.00" waitingCount="1" stopTime="0.00" timeLoss="25.25" rerouteNo="0" devices="tripinfo_672" vType="DEFAULT_VEHTYPE" speedFactor="0.91" vaporized=""/>
    <tripinfo id="1171" depart="141.00" departLane="476_4way_270to4way_290_0" departPos="5.10" departSpeed="0.00" departDelay="0.48" arrival="158.00" arrivalLane="476_4way_270to4way_290_0" arrivalPos="185.60" arrivalSpeed="13.16" duration="17.00" routeLength="180.50" waitingTime="0.00" waitingCount="0" stopTime="0.00" timeLoss="3.57" rerouteNo="0" devices="tripinfo_1171" vType="DEFAULT_VEHTYPE" speedFactor="0.97" vaporized=""/>
    <tripinfo id="932" depart="112.00" departLane="420_4way_244to4way_243_0" departPos="5.10" departSpeed="0.00" departDelay="0.16" arrival="160.00" arrivalLane="416_4way_242to4way_241_0" arrivalPos="185.60" arrivalSpeed="13.42" duration="48.00" routeLength="580.50" waitingTime="0.00" waitingCount="0" stopTime="0.00" timeLoss="4.43" rerouteNo="0" devices="tripinfo_932" vType="DEFAULT_VEHTYPE" speedFactor="0.98" vaporized=""/>
    <tripinfo id="711" depart="86.00" departLane="651_4way_363to4way_362_0" departPos="5.10" departSpeed="0.00" departDelay="0.68" arrival="163.00" arrivalLane="87_3way_382to3way_381_0" arrivalPos="185.60" arrivalSpeed="13.58" duration="77.00" routeLength="574.92" waitingTime="23.00" waitingCount="1" stopTime="0.00" timeLoss="34.83" rerouteNo="0" devices="tripinfo_711" vType="DEFAULT_VEHTYPE" speedFactor="1.03" vaporized=""/>
    <tripinfo id="957" depart="115.00" departLane="615_4way_343to4way_344_0" departPos="5.10" departSpeed="0.00" departDelay="0.16" arrival="163.00" arrivalLane="540_4way_324to4way_304_0" arrivalPos="185.60" arrivalSpeed="13.19" duration="48.00" routeLength="575.13" waitingTime="0.00" waitingCount="0" stopTime="0.00" timeLoss="6.54" rerouteNo="0" devices="tripinfo_957" vType="DEFAULT_VEHTYPE" speedFactor="1.03" vaporized=""/>
    <tripinfo id="476" depart="58.00" departLane="270_4way_163to4way_162_0" departPos="5.10" departSpeed="0.00" departDelay="0.88" arrival="164.00" arrivalLane="34_4way_161to3way_160_0" arrivalPos="185.60" arrivalSpeed="10.99" duration="106.00" routeLength="580.50" waitingTime="46.00" waitingCount="1" stopTime="0.00" timeLoss="57.58" rerouteNo="0" devices="tripinfo_476" vType="DEFAULT_VEHTYPE" speedFactor="0.87" vaporized=""/>
    <tripinfo id="1195" depart="146.00" departLane="601_4way_354to4way_334_0" departPos="5.10" departSpeed="0.00" departDelay="2.60" arrival="164.00" arrivalLane="601_4way_354to4way_334_0" arrivalPos="185.60" arrivalSpeed="12.41" duration="18.00" routeLength="180.50" waitingTime="0.00" waitingCount="0" stopTime="0.00" timeLoss="3.22" rerouteNo="0" devices="tripinfo_1195" vType="DEFAULT_VEHTYPE" speedFactor="0.93" vaporized=""/>
    <tripinfo id="585" depart="71.00" departLane="344_4way_205to4way_204_0" departPos="5.10" departSpeed="0.00" departDelay="0.80" arrival="166.00" arrivalLane="343_4way_203to4way_223_0" arrivalPos="185.60" arrivalSpeed="11.44" duration="95.00" routeLength="575.13" waitingTime="35.00" waitingCount="1" stopTime="0.00" timeLoss="46.51" rerouteNo="0" devices="tripinfo_585" vType="DEFAULT_VEHTYPE" speedFactor="0.88" vaporized=""/>
    <tripinfo id="559" depart="68.00" departLane="665_4way_374to4way_375_0" departPos="5.10" departSpeed="0.00" departDelay="0.92" arrival="168.00" arrivalLane="644_4way_376to4way_356_0" arrivalPos="185.60" arrivalSpeed="11.14" duration="100.00" routeLength="575.13" waitingTime="39.00" waitingCount="1" stopTime="0.00" timeLoss="50.25" rerouteNo="0" devices="tripinfo_559" vType="DEFAULT_VEHTYPE" speedFactor="0.85" vaporized=""/>
    <tripinfo id="985" depart="119.00" departLane="60_3way_259to4way_258_0" departPos="5.10" departSpeed="0.00" departDelay="0.80" arrival="168.00" arrivalLane="451_4way_257to4way_277_0" arrivalPos="185.60" arrivalSpeed="13.16" duration="49.00" routeLength="575.13" waitingTime="0.00" waitingCount="0" stopTime="0.00" timeLoss="7.22" rerouteNo="0" devices="tripinfo_985" vType="DEFAULT_VEHTYPE" speedFactor="1.03" vaporized=""/>
    <tripinfo id="1261" depart="152.00" departLane="602_4way_335to4way_336_0" departPos="5.10" departSpeed="0.00" departDelay="0.68" arrival="169.00" arrivalLane="602_4way_335to4way_336_0" arrivalPos="185.60" arrivalSpeed="12.96" duration="17.00" routeLength="180.50" waitingTime="0.00" waitingCount="0" stopTime="0.00" timeLoss="3.76" rerouteNo="0" devices="tripinfo_1261" vType="DEFAULT_VEHTYPE" speedFactor="1.03" vaporized=""/>
    <tripinfo id="1259" depart="152.00" departLane="152_4way_123to4way_103_0" departPos="5.10" departSpeed="0.00" departDelay="0.92" arrival="170.00" arrivalLane="152_4way_123to4way_103_0" arrivalPos="185.60" arrivalSpeed="11.90" duration="18.00" routeLength="180.50" waitingTime="0.00" waitingCount="0" stopTime="0.00" timeLoss="2.99" rerouteNo="0" devices="tripinfo_1259" vType="DEFAULT_VEHTYPE" speedFactor="0.88" vaporized=""/>
    <tripinfo id="1096" depart="132.00" departLane="739_4way_78to4way_98_0" departPos="5.10" departSpeed="0.00" departDelay="0.48" arrival="173.00" arrivalLane="196_4way_118to4way_138_0" arrivalPos="185.60" arrivalSpeed="16.06" duration="41.00" routeLength="580.50" waitingTime="0.00" waitingCount="0" stopTime="0.00" timeLoss="4.84" rerouteNo="0" devices="tripinfo_1096" vType="DEFAULT_VEHTYPE" speedFactor="1.19" vaporized=""/>
    <tripinfo id="1138" depart="137.00" departLane="583_4way_326to4way_346_0" departPos="5.10" departSpeed="0.00" departDelay="0.44" arrival="175.00" arrivalLane="622_4way_346to4way_366_0" arrivalPos="185.60" arrivalSpeed="10.37" duration="38.00" routeLength="380.50" waitingTime="0.00" waitingCount="0" stopTime="0.00" timeLoss="4.31" rerouteNo="0" devices="tripinfo_1138" vType="DEFAULT_VEHTYPE" speedFactor="0.83" vaporized=""/>
    <tripinfo id="1341" depart="161.00" departLane="238_4way_163to4way_143_0" departPos="5.10" departSpeed="0.00" departDelay="0.08" arrival="179.00" arrivalLane="238_4way_163to4way_143_0" arrivalPos="185.60" arrivalSpeed="11.95" duration="18.00" routeLength="180.50" waitingTime="0.00" waitingCount="0" stopTime="0.00" timeLoss="3.37" rerouteNo="0" devices="tripinfo_1341" vType="DEFAULT_VEHTYPE" speedFactor="0.92" vaporized=""/>
    <tripinfo id="684" depart="83.00" departLane="360_4way_211to4way_212_0" departPos="5.10" departSpeed="0.00" departDelay="0.92" arrival="182.00" arrivalLane="330_4way_214to4way_194_0" arrivalPos="185.60" arrivalSpeed="13.59" duration="99.00" routeLength="775.13" waitingTime="27.00" waitingCount="1" stopTime="0.00" timeLoss="42.77" rerouteNo="0" devices="tripinfo_684" vType="DEFAULT_VEHTYPE" speedFactor="1.01" vaporized=""/>
    <tripinfo id="186" depart="23.00" departLane="632_4way_370to4way_350_0" departPos="5.10" departSpeed="0.00" departDelay="0.68" arrival="183.00" arrivalLane="440_4way_252to4way_253_0" arrivalPos="185.60" arrivalSpeed="10.92" duration="160.00" routeLength="1780.30" waitingTime="0.00" waitingCount="0" stopTime="0.00" timeLoss="11.93" rerouteNo="0" devices="tripinfo_186" vType="DEFAULT_VEHTYPE" speedFactor="0.87" vaporized=""/>
    <tripinfo id="546" depart="66.00" departLane="334_4way_196to4way_216_0" departPos="5.10" departSpeed="0.00" departDelay="0.48" arrival="187.00" arrivalLane="403_4way_234to4way_233_0" arrivalPos="185.60" arrivalSpeed="14.29" duration="121.00" routeLength="980.30" waitingTime="43.00" waitingCount="1" stopTime="0.00" timeLoss="55.36" rerouteNo="0" devices="tripinfo_546" vType="DEFAULT_VEHTYPE" speedFactor="1.09" vaporized=""/>
    <tripinfo id="452" depart="55.00" departLane="755_4way_97to4way_96_0" departPos="5.10" departSpeed="0.00" departDelay="0.76" arrival="190.00" arrivalLane="192_4way_96to4way_116_0" arrivalPos="185.60" arrivalSpeed="4.99" duration="135.00" routeLength="375.13" waitingTime="95.00" waitingCount="2" stopTime="0.00" timeLoss="109.24" rerouteNo="0" devices="tripinfo_452" vType="DEFAULT_VEHTYPE" speedFactor="1.09" vaporized=""/>
    <tripinfo id="318" depart="39.00" departLane="109_3way_392to3way_391_0" departPos="5.10" departSpeed="0.00" departDelay="0.84" arrival="193.00" arrivalLane="101_3way_389to3way_388_0" arrivalPos="185.60" arrivalSpeed="8.22" duration="154.00" routeLength="780.50" waitingTime="82.00" waitingCount="2" stopTime="0.00" timeLoss="98.21" rerouteNo="0" devices="tripinfo_318" vType="DEFAULT_VEHTYPE" speedFactor="1.01" vaporized=""/>
    <tripinfo id="536" depart="65.00" departLane="671_4way_41to4way_61_0" departPos="5.10" departSpeed="0.00" departDelay="0.68" arrival="193.00" arrivalLane="707_4way_62to4way_63_0" arrivalPos="185.60" arrivalSpeed="7.05" duration="128.00" routeLength="575.13" waitingTime="76.00" waitingCount="1" stopTime="0.00" timeLoss="88.40" rerouteNo="0" devices="tripinfo_536" vType="DEFAULT_VEHTYPE" speedFactor="1.06" vaporized=""/>
    <tripinfo id="1034" depart="125.00" departLane="479_4way_272to4way_273_0" departPos="5.10" departSpeed="0.00" departDelay="0.92" arrival="198.00" arrivalLane="481_4way_273to4way_274_0" arrivalPos="185.60" arrivalSpeed="4.49" duration="73.00" routeLength="380.50" waitingTime="35.00" waitingCount="2" stopTime="0.00" timeLoss="48.46" rerouteNo="0" devices="tripinfo_1034" vType="DEFAULT_VEHTYPE" speedFactor="1.13" vaporized=""/>
    <tripinfo id="36" depart="5.00" departLane="217_4way_130to4way_150_0" departPos="5.10" departSpeed="0.00" departDelay="0.68" arrival="201.00" arrivalLane="335_4way_197to4way_198_0" arrivalPos="185.60" arrivalSpeed="15.19" duration="196.00" routeLength="2175.13" waitingTime="42.00" waitingCount="1" stopTime="0.00" timeLoss="59.77" rerouteNo="0" devices="tripinfo_36" vType="DEFAULT_VEHTYPE" speedFactor="1.16" vaporized=""/>
    <tripinfo id="604" depart="73.00" departLane="445_4way_254to4way_274_0" departPos="5.10" departSpeed="0.00" departDelay="0.52" arrival="202.00" arrivalLane="115_3way_394to3way_395_0" arrivalPos="185.60" arrivalSpeed="16.01" duration="129.00" routeLength="1575.13" waitingTime="18.00" waitingCount="1" stopTime="0.00" timeLoss="33.36" rerouteNo="0" devices="tripinfo_604" vType="DEFAULT_VEHTYPE" speedFactor="1.20" vaporized=""/>
    <tripinfo id="1638" depart="197.00" departLane="183_4way_113to4way_93_0" departPos="5.10" departSpeed="0.00" departDelay="0.44" arrival="214.00" arrivalLane="183_4way_113to4way_93_0" arrivalPos="185.60" arrivalSpeed="12.96" duration="17.00" routeLength="180.50" waitingTime="0.00" waitingCount="0" stopTime="0.00" timeLoss="3.62" rerouteNo="0" devices="tripinfo_1638" vType="DEFAULT_VEHTYPE" speedFactor="0.98" vaporized=""/>
    <tripinfo id="108" depart="13.00" departLane="242_4way_165to4way_145_0" departPos="5.10" departSpeed="0.00" departDelay="0.04" arrival="218.00" arrivalLane="414_4way_25to4way_24_0" arrivalPos="185.60" arrivalSpeed="11.79" duration="205.00" routeLength="1575.13" waitingTime="58.00" waitingCount="1" stopTime="0.00" timeLoss="74.87" rerouteNo="0" devices="tripinfo_108" vType="DEFAULT_VEHTYPE" speedFactor="0.88" vaporized=""/>
    <tripinfo id="1330" depart="160.00" departLane="166_4way_109to4way_108_0" departPos="5.10" departSpeed="0.00" departDelay="0.40" arrival="218.00" arrivalLane="685_4way_68to4way_48_0" arrivalPos="185.60" arrivalSpeed="14.83" duration="58.00" routeLength="780.30" waitingTime="0.00" waitingCount="0" stopTime="0.00" timeLoss="7.45" rerouteNo="0" devices="tripinfo_1330" vType="DEFAULT_VEHTYPE" speedFactor="1.13" vaporized=""/>
    <tripinfo id="1172" depart="141.00" departLane="373_4way_237to4way_217_0" departPos="5.10" departSpeed="0.00" departDelay="0.36" arrival="220.00" arrivalLane="296_4way_176to4way_175_0" arrivalPos="185.60" arrivalSpeed="12.88" duration="79.00" routeLength="975.13" waitingTime="0.00" waitingCount="0" stopTime="0.00" timeLoss="8.81" rerouteNo="0" devices="tripinfo_1172" vType="DEFAULT_VEHTYPE" speedFactor="1.01" vaporized=""/>
    <tripinfo id="1678" depart="202.00" departLane="460_4way_263to4way_283_0" departPos="5.10" departSpeed="0.00" departDelay="0.64" arrival="220.00" arrivalLane="460_4way_263to4way_283_0" arrivalPos="185.60" arrivalSpeed="12.72" duration="18.00" routeLength="180.50" waitingTime="0.00" waitingCount="0" stopTime="0.00" timeLoss="3.77" rerouteNo="0" devices="tripinfo_1678" vType="DEFAULT_VEHTYPE" speedFactor="0.97" vaporized=""/>
    <tripinfo id="675" depart="81.00" departLane="421_4way_263to4way_243_0" departPos="5.10" departSpeed="0.00" departDelay="0.00" arrival="222.00" arrivalLane="343_4way_223to4way_203_0" arrivalPos="185.60" arrivalSpeed="11.38" duration="141.00" routeLength="580.50" waitingTime="85.00" waitingCount="1" stopTime="0.00" timeLoss="94.92" rerouteNo="0" devices="tripinfo_675" vType="DEFAULT_VEHTYPE" speedFactor="0.91" vaporized=""/>
    <tripinfo id="620" depart="75.00" departLane="9_3way_100to4way_101_0" departPos="5.10" departSpeed="0.00" departDelay="0.60" arrival="223.00" arrivalLane="710_4way_83to4way_63_0" arrivalPos="185.60" arrivalSpeed="12.97" duration="148.00" routeLength="975.13" waitingTime="62.00" waitingCount="1" stopTime="0.00" timeLoss="74.07" rerouteNo="0" devices="tripinfo_620" vType="DEFAULT_VEHTYPE" speedFactor="0.97" vaporized=""/>
    <tripinfo id="254" depart="31.00" departLane="505_4way_306to4way_286_0" departPos="5.10" departSpeed="0.00" departDelay="0.52" arrival="226.00" arrivalLane="379_4way_223to4way_222_0" arrivalPos="185.60" arrivalSpeed="12.21" duration="195.00" routeLength="1569.56" waitingTime="43.00" waitingCount="2" stopTime="0.00" timeLoss="66.52" rerouteNo="0" devices="tripinfo_254" vType="DEFAULT_VEHTYPE" speedFactor="0.90" vaporized=""/>
    <tripinfo id="1372" depart="165.00" departLane="41_3way_180to3way_200_0" departPos="5.10" departSpeed="0.00" departDelay="0.36" arrival="226.00" arrivalLane="50_3way_200to4way_201_0" arrivalPos="185.60" arrivalSpeed="12.56" duration="61.00" routeLength="375.13" waitingTime="12.00" waitingCount="1" stopTime="0.00" timeLoss="32.95" rerouteNo="0" devices="tripinfo_1372" vType="DEFAULT_VEHTYPE" speedFactor="0.98" vaporized=""/>