<?xml version="1.0" encoding="UTF-8"?>

<!-- generated on 2023-07-27 16:26:21 by Eclipse SUMO sumo Version 1.12.0
<configuration xmlns:xsi="http://www.w3.org/2001/XMLSchema-instance" xsi:noNamespaceSchemaLocation="http://sumo.dlr.de/xsd/sumoConfiguration.xsd">

    <input>
        <net-file value="../../data_generation/sq.net.xml"/>
        <route-files value="../../data_generation/sq.rou.xml"/>
    </input>

    <output>
        <tripinfo-output value="tripinfo.xml"/>
        <statistic-output value="statistic.xml"/>
    </output>

    <time>
        <begin value="0"/>
        <end value="3600"/>
    </time>

    <processing>
        <time-to-teleport value="-1"/>
    </processing>

    <traci_server>
        <remote-port value="38989"/>
    </traci_server>

    <random_number>
        <seed value="1395"/>
    </random_number>

    <gui_only>
        <gui-settings-file value="../../data_generation/view_HY_0402.xml"/>
    </gui_only>

</configuration>
-->

<tripinfos xmlns:xsi="http://www.w3.org/2001/XMLSchema-instance" xsi:noNamespaceSchemaLocation="http://sumo.dlr.de/xsd/tripinfo_file.xsd">
    <tripinfo id="15" depart="5.00" departLane="80_4way_9to4way_8_0" departPos="5.10" departSpeed="0.00" departDelay="0.24" arrival="14.00" arrivalLane="80_4way_9to4way_8_0" arrivalPos="85.60" arrivalSpeed="14.18" duration="9.00" routeLength="80.50" waitingTime="0.00" waitingCount="0" stopTime="0.00" timeLoss="3.44" rerouteNo="0" devices="tripinfo_15" vType="DEFAULT_VEHTYPE" speedFactor="1.05" vaporized=""/>
    <tripinfo id="12" depart="4.00" departLane="17_4way_26to3way_27_0" departPos="5.10" departSpeed="0.00" departDelay="0.19" arrival="22.00" arrivalLane="12_3way_27to3way_20_0" arrivalPos="85.60" arrivalSpeed="15.80" duration="18.00" routeLength="175.13" waitingTime="0.00" waitingCount="0" stopTime="0.00" timeLoss="5.73" rerouteNo="0" devices="tripinfo_12" vType="DEFAULT_VEHTYPE" speedFactor="1.16" vaporized=""/>
    <tripinfo id="14" depart="5.00" departLane="35_4way_38to3way_45_0" departPos="5.10" departSpeed="0.00" departDelay="0.56" arrival="24.00" arrivalLane="34_3way_45to3way_46_0" arrivalPos="85.60" arrivalSpeed="12.68" duration="19.00" routeLength="175.13" waitingTime="0.00" waitingCount="0" stopTime="0.00" timeLoss="4.69" rerouteNo="0" devices="tripinfo_14" vType="DEFAULT_VEHTYPE" speedFactor="0.95" vaporized=""/>
    <tripinfo id="19" depart="7.00" departLane="21_3way_3to4way_10_0" departPos="5.10" departSpeed="0.00" departDelay="0.97" arrival="25.00" arrivalLane="42_4way_10to4way_17_0" arrivalPos="85.60" arrivalSpeed="11.96" duration="18.00" routeLength="180.50" waitingTime="0.00" waitingCount="0" stopTime="0.00" timeLoss="3.19" rerouteNo="0" devices="tripinfo_19" vType="DEFAULT_VEHTYPE" speedFactor="0.89" vaporized=""/>
    <tripinfo id="38" depart="13.00" departLane="42_4way_17to4way_10_0" departPos="5.10" departSpeed="0.00" departDelay="0.94" arrival="30.00" arrivalLane="21_4way_10to3way_3_0" arrivalPos="85.60" arrivalSpeed="13.22" duration="17.00" routeLength="180.50" waitingTime="0.00" waitingCount="0" stopTime="0.00" timeLoss="3.28" rerouteNo="0" devices="tripinfo_38" vType="DEFAULT_VEHTYPE" speedFactor="1.00" vaporized=""/>
    <tripinfo id="64" depart="21.00" departLane="52_4way_16to4way_9_0" departPos="5.10" departSpeed="0.00" departDelay="0.69" arrival="31.00" arrivalLane="52_4way_16to4way_9_0" arrivalPos="85.60" arrivalSpeed="12.27" duration="10.00" routeLength="80.50" waitingTime="0.00" waitingCount="0" stopTime="0.00" timeLoss="3.66" rerouteNo="0" devices="tripinfo_64" vType="DEFAULT_VEHTYPE" speedFactor="0.96" vaporized=""/>
    <tripinfo id="61" depart="23.00" departLane="33_3way_44to4way_37_0" departPos="5.10" departSpeed="0.00" departDelay="3.64" arrival="32.00" arrivalLane="33_3way_44to4way_37_0" arrivalPos="85.60" arrivalSpeed="13.83" duration="9.00" routeLength="80.50" waitingTime="0.00" waitingCount="0" stopTime="0.00" timeLoss="3.04" rerouteNo="0" devices="tripinfo_61" vType="DEFAULT_VEHTYPE" speedFactor="1.01" vaporized=""/>
    <tripinfo id="69" depart="22.00" departLane="53_4way_17to4way_18_0" departPos="5.10" departSpeed="0.00" departDelay="0.10" arrival="32.00" arrivalLane="53_4way_17to4way_18_0" arrivalPos="85.60" arrivalSpeed="10.07" duration="10.00" routeLength="80.50" waitingTime="0.00" waitingCount="0" stopTime="0.00" timeLoss="2.79" rerouteNo="0" devices="tripinfo_69" vType="DEFAULT_VEHTYPE" speedFactor="0.82" vaporized=""/>
    <tripinfo id="21" depart="7.00" departLane="18_3way_28to3way_35_0" departPos="5.10" departSpeed="0.00" departDelay="0.33" arrival="35.00" arrivalLane="24_3way_35to3way_43_0" arrivalPos="182.40" arrivalSpeed="11.00" duration="28.00" routeLength="277.30" waitingTime="0.00" waitingCount="0" stopTime="0.00" timeLoss="3.55" rerouteNo="0" devices="tripinfo_21" vType="DEFAULT_VEHTYPE" speedFactor="0.82" vaporized=""/>
    <tripinfo id="79" depart="27.00" departLane="73_4way_32to4way_33_0" departPos="5.10" departSpeed="0.00" departDelay="1.92" arrival="37.00" arrivalLane="73_4way_32to4way_33_0" arrivalPos="85.60" arrivalSpeed="11.95" duration="10.00" routeLength="80.50" waitingTime="0.00" waitingCount="0" stopTime="0.00" timeLoss="3.20" rerouteNo="0" devices="tripinfo_79" vType="DEFAULT_VEHTYPE" speedFactor="0.90" vaporized=""/>
    <tripinfo id="95" depart="31.00" departLane="36_3way_46to3way_47_0" departPos="5.10" departSpeed="0.00" departDelay="0.85" arrival="41.00" arrivalLane="36_3way_46to3way_47_0" arrivalPos="85.60" arrivalSpeed="11.13" duration="10.00" routeLength="80.50" waitingTime="0.00" waitingCount="0" stopTime="0.00" timeLoss="2.69" rerouteNo="0" devices="tripinfo_95" vType="DEFAULT_VEHTYPE" speedFactor="0.88" vaporized=""/>
    <tripinfo id="102" depart="33.00" departLane="29_3way_41to4way_40_0" departPos="5.10" departSpeed="0.00" departDelay="0.62" arrival="43.00" arrivalLane="29_3way_41to4way_40_0" arrivalPos="85.60" arrivalSpeed="14.10" duration="10.00" routeLength="80.50" waitingTime="0.00" waitingCount="0" stopTime="0.00" timeLoss="3.56" rerouteNo="0" devices="tripinfo_102" vType="DEFAULT_VEHTYPE" speedFactor="1.05" vaporized=""/>
    <tripinfo id="70" depart="23.00" departLane="46_4way_19to4way_12_0" departPos="5.10" departSpeed="0.00" departDelay="0.78" arrival="44.00" arrivalLane="39_4way_12to3way_5_0" arrivalPos="85.60" arrivalSpeed="10.04" duration="21.00" routeLength="180.50" waitingTime="0.00" waitingCount="0" stopTime="0.00" timeLoss="3.33" rerouteNo="0" devices="tripinfo_70" vType="DEFAULT_VEHTYPE" speedFactor="0.75" vaporized=""/>
    <tripinfo id="100" depart="32.00" departLane="80_4way_8to4way_9_0" departPos="5.10" departSpeed="0.00" departDelay="0.26" arrival="47.00" arrivalLane="43_4way_9to4way_10_0" arrivalPos="85.60" arrivalSpeed="15.94" duration="15.00" routeLength="180.50" waitingTime="0.00" waitingCount="0" stopTime="0.00" timeLoss="3.79" rerouteNo="0" devices="tripinfo_100" vType="DEFAULT_VEHTYPE" speedFactor="1.20" vaporized=""/>
    <tripinfo id="123" depart="40.00" departLane="72_4way_31to4way_38_0" departPos="5.10" departSpeed="0.00" departDelay="0.96" arrival="49.00" arrivalLane="72_4way_31to4way_38_0" arrivalPos="85.60" arrivalSpeed="13.87" duration="9.00" routeLength="80.50" waitingTime="0.00" waitingCount="0" stopTime="0.00" timeLoss="3.13" rerouteNo="0" devices="tripinfo_123" vType="DEFAULT_VEHTYPE" speedFactor="1.06" vaporized=""/>
    <tripinfo id="56" depart="18.00" departLane="54_4way_17to4way_24_0" departPos="5.10" departSpeed="0.00" departDelay="0.23" arrival="51.00" arrivalLane="78_4way_38to4way_39_0" arrivalPos="85.60" arrivalSpeed="13.09" duration="33.00" routeLength="375.13" waitingTime="0.00" waitingCount="0" stopTime="0.00" timeLoss="5.65" rerouteNo="0" devices="tripinfo_56" vType="DEFAULT_VEHTYPE" speedFactor="1.02" vaporized=""/>
    <tripinfo id="62" depart="20.00" departLane="8_3way_7to3way_14_0" departPos="5.10" departSpeed="0.00" departDelay="0.32" arrival="52.00" arrivalLane="58_4way_22to4way_23_0" arrivalPos="85.60" arrivalSpeed="13.82" duration="32.00" routeLength="375.13" waitingTime="0.00" waitingCount="0" stopTime="0.00" timeLoss="5.53" rerouteNo="0" devices="tripinfo_62" vType="DEFAULT_VEHTYPE" speedFactor="1.05" vaporized=""/>
    <tripinfo id="47" depart="15.00" departLane="35_3way_45to4way_38_0" departPos="5.10" departSpeed="0.00" departDelay="0.08" arrival="59.00" arrivalLane="42_4way_17to4way_10_0" arrivalPos="85.60" arrivalSpeed="12.31" duration="44.00" routeLength="480.50" waitingTime="0.00" waitingCount="0" stopTime="0.00" timeLoss="4.63" rerouteNo="0" devices="tripinfo_47" vType="DEFAULT_VEHTYPE" speedFactor="0.90" vaporized=""/>
    <tripinfo id="152" depart="49.00" departLane="26_3way_5to3way_4_0" departPos="5.10" departSpeed="0.00" departDelay="0.75" arrival="59.00" arrivalLane="26_3way_5to3way_4_0" arrivalPos="85.60" arrivalSpeed="11.87" duration="10.00" routeLength="80.50" waitingTime="0.00" waitingCount="0" stopTime="0.00" timeLoss="2.73" rerouteNo="0" devices="tripinfo_152" vType="DEFAULT_VEHTYPE" speedFactor="0.89" vaporized=""/>
    <tripinfo id="159" depart="53.00" departLane="42_4way_17to4way_10_0" departPos="5.10" departSpeed="0.00" departDelay="2.53" arrival="63.00" arrivalLane="42_4way_17to4way_10_0" arrivalPos="85.60" arrivalSpeed="13.12" duration="10.00" routeLength="80.50" waitingTime="0.00" waitingCount="0" stopTime="0.00" timeLoss="3.36" rerouteNo="0" devices="tripinfo_159" vType="DEFAULT_VEHTYPE" speedFactor="0.99" vaporized=""/>
    <tripinfo id="112" depart="36.00" departLane="29_3way_41to4way_40_0" departPos="5.10" departSpeed="0.00" departDelay="0.45" arrival="64.00" arrivalLane="37_4way_39to3way_46_0" arrivalPos="85.60" arrivalSpeed="12.30" duration="28.00" routeLength="275.13" waitingTime="0.00" waitingCount="0" stopTime="0.00" timeLoss="6.14" rerouteNo="0" devices="tripinfo_112" vType="DEFAULT_VEHTYPE" speedFactor="0.95" vaporized=""/>
    <tripinfo id="50" depart="19.00" departLane="52_4way_9to4way_16_0" departPos="5.10" departSpeed="0.00" departDelay="3.13" arrival="70.00" arrivalLane="52_4way_9to4way_16_0" arrivalPos="85.60" arrivalSpeed="6.35" duration="51.00" routeLength="80.50" waitingTime="37.00" waitingCount="1" stopTime="0.00" timeLoss="45.01" rerouteNo="0" devices="tripinfo_50" vType="DEFAULT_VEHTYPE" speedFactor="1.01" vaporized=""/>
    <tripinfo id="93" depart="30.00" departLane="17_4way_26to3way_27_0" departPos="5.10" departSpeed="0.00" departDelay="0.48" arrival="70.00" arrivalLane="16_3way_27to3way_34_0" arrivalPos="85.60" arrivalSpeed="4.45" duration="40.00" routeLength="180.29" waitingTime="16.00" waitingCount="1" stopTime="0.00" timeLoss="26.23" rerouteNo="0" devices="tripinfo_93" vType="DEFAULT_VEHTYPE" speedFactor="1.00" vaporized=""/>
    <tripinfo id="132" depart="42.00" departLane="79_4way_39to4way_40_0" departPos="5.10" departSpeed="0.00" departDelay="0.10" arrival="70.00" arrivalLane="75_4way_40to4way_33_0" arrivalPos="85.60" arrivalSpeed="4.91" duration="28.00" routeLength="175.13" waitingTime="3.00" waitingCount="1" stopTime="0.00" timeLoss="12.39" rerouteNo="0" devices="tripinfo_132" vType="DEFAULT_VEHTYPE" speedFactor="0.86" vaporized=""/>
    <tripinfo id="155" depart="50.00" departLane="63_4way_24to4way_31_0" departPos="5.10" departSpeed="0.00" departDelay="0.80" arrival="70.00" arrivalLane="71_4way_31to4way_32_0" arrivalPos="85.60" arrivalSpeed="12.08" duration="20.00" routeLength="175.13" waitingTime="0.00" waitingCount="0" stopTime="0.00" timeLoss="5.64" rerouteNo="0" devices="tripinfo_155" vType="DEFAULT_VEHTYPE" speedFactor="0.94" vaporized=""/>
    <tripinfo id="57" depart="21.00" departLane="58_4way_22to4way_23_0" departPos="5.10" departSpeed="0.00" departDelay="2.91" arrival="73.00" arrivalLane="60_4way_23to4way_24_0" arrivalPos="85.60" arrivalSpeed="9.68" duration="52.00" routeLength="180.50" waitingTime="28.00" waitingCount="1" stopTime="0.00" timeLoss="37.86" rerouteNo="0" devices="tripinfo_57" vType="DEFAULT_VEHTYPE" speedFactor="0.97" vaporized=""/>
    <tripinfo id="109" depart="35.00" departLane="17_4way_26to3way_27_0" departPos="5.10" departSpeed="0.00" departDelay="0.40" arrival="73.00" arrivalLane="16_3way_27to3way_34_0" arrivalPos="85.60" arrivalSpeed="8.42" duration="38.00" routeLength="180.29" waitingTime="13.00" waitingCount="1" stopTime="0.00" timeLoss="24.15" rerouteNo="0" devices="tripinfo_109" vType="DEFAULT_VEHTYPE" speedFactor="1.04" vaporized=""/>
    <tripinfo id="18" depart="6.00" departLane="8_3way_7to3way_14_0" departPos="5.10" departSpeed="0.00" departDelay="0.29" arrival="75.00" arrivalLane="14_3way_21to3way_28_0" arrivalPos="85.60" arrivalSpeed="8.62" duration="69.00" routeLength="280.50" waitingTime="37.00" waitingCount="1" stopTime="0.00" timeLoss="47.48" rerouteNo="0" devices="tripinfo_18" vType="DEFAULT_VEHTYPE" speedFactor="0.96" vaporized=""/>
    <tripinfo id="99" depart="32.00" departLane="20_3way_4to3way_3_0" departPos="5.10" departSpeed="0.00" departDelay="0.58" arrival="75.00" arrivalLane="10_3way_3to3way_2_0" arrivalPos="85.60" arrivalSpeed="9.04" duration="43.00" routeLength="180.50" waitingTime="19.00" waitingCount="1" stopTime="0.00" timeLoss="29.31" rerouteNo="0" devices="tripinfo_99" vType="DEFAULT_VEHTYPE" speedFactor="0.97" vaporized=""/>
    <tripinfo id="106" depart="34.00" departLane="56_4way_25to4way_18_0" departPos="5.10" departSpeed="0.00" departDelay="0.36" arrival="76.00" arrivalLane="50_4way_17to4way_16_0" arrivalPos="85.60" arrivalSpeed="15.30" duration="42.00" routeLength="275.13" waitingTime="11.00" waitingCount="1" stopTime="0.00" timeLoss="23.95" rerouteNo="0" devices="tripinfo_106" vType="DEFAULT_VEHTYPE" speedFactor="1.16" vaporized=""/>
    <tripinfo id="206" depart="66.00" departLane="75_4way_40to4way_33_0" departPos="5.10" departSpeed="0.00" departDelay="0.62" arrival="76.00" arrivalLane="75_4way_40to4way_33_0" arrivalPos="85.60" arrivalSpeed="12.77" duration="10.00" routeLength="80.50" waitingTime="0.00" waitingCount="0" stopTime="0.00" timeLoss="2.90" rerouteNo="0" devices="tripinfo_206" vType="DEFAULT_VEHTYPE" speedFactor="0.92" vaporized=""/>
    <tripinfo id="24" depart="8.00" departLane="16_3way_27to3way_34_0" departPos="5.10" departSpeed="0.00" departDelay="0.38" arrival="77.00" arrivalLane="22_3way_34to3way_41_0" arrivalPos="85.60" arrivalSpeed="13.40" duration="69.00" routeLength="180.50" waitingTime="47.00" waitingCount="1" stopTime="0.00" timeLoss="54.77" rerouteNo="0" devices="tripinfo_24" vType="DEFAULT_VEHTYPE" speedFactor="0.97" vaporized=""/>
    <tripinfo id="45" depart="15.00" departLane="3_3way_1to4way_8_0" departPos="5.10" departSpeed="0.00" departDelay="0.72" arrival="77.00" arrivalLane="47_4way_15to4way_16_0" arrivalPos="85.60" arrivalSpeed="13.32" duration="62.00" routeLength="275.13" waitingTime="31.00" waitingCount="1" stopTime="0.00" timeLoss="41.11" rerouteNo="0" devices="tripinfo_45" vType="DEFAULT_VEHTYPE" speedFactor="1.00" vaporized=""/>
    <tripinfo id="80" depart="26.00" departLane="14_3way_28to3way_21_0" departPos="5.10" departSpeed="0.00" departDelay="0.61" arrival="77.00" arrivalLane="2_3way_7to3way_1_0" arrivalPos="188.80" arrivalSpeed="10.41" duration="51.00" routeLength="483.70" waitingTime="0.00" waitingCount="0" stopTime="0.00" timeLoss="5.37" rerouteNo="0" devices="tripinfo_80" vType="DEFAULT_VEHTYPE" speedFactor="0.78" vaporized=""/>
    <tripinfo id="97" depart="31.00" departLane="54_4way_17to4way_24_0" departPos="5.10" departSpeed="0.00" departDelay="0.21" arrival="77.00" arrivalLane="30_3way_44to3way_43_0" arrivalPos="85.60" arrivalSpeed="14.20" duration="46.00" routeLength="580.29" waitingTime="0.00" waitingCount="0" stopTime="0.00" timeLoss="5.52" rerouteNo="0" devices="tripinfo_97" vType="DEFAULT_VEHTYPE" speedFactor="1.06" vaporized=""/>
    <tripinfo id="107" depart="34.00" departLane="74_4way_39to4way_32_0" departPos="5.10" departSpeed="0.00" departDelay="0.04" arrival="77.00" arrivalLane="69_4way_31to4way_30_0" arrivalPos="85.60" arrivalSpeed="15.13" duration="43.00" routeLength="275.13" waitingTime="11.00" waitingCount="1" stopTime="0.00" timeLoss="23.18" rerouteNo="0" devices="tripinfo_107" vType="DEFAULT_VEHTYPE" speedFactor="1.10" vaporized=""/>
    <tripinfo id="185" depart="59.00" departLane="52_4way_16to4way_9_0" departPos="5.10" departSpeed="0.00" departDelay="0.28" arrival="77.00" arrivalLane="80_4way_9to4way_8_0" arrivalPos="85.60" arrivalSpeed="15.72" duration="18.00" routeLength="175.13" waitingTime="0.00" waitingCount="0" stopTime="0.00" timeLoss="5.99" rerouteNo="0" devices="tripinfo_185" vType="DEFAULT_VEHTYPE" speedFactor="1.18" vaporized=""/>
    <tripinfo id="192" depart="61.00" departLane="74_4way_32to4way_39_0" departPos="5.10" departSpeed="0.00" departDelay="0.06" arrival="77.00" arrivalLane="37_4way_39to3way_46_0" arrivalPos="85.60" arrivalSpeed="15.09" duration="16.00" routeLength="180.50" waitingTime="0.00" waitingCount="0" stopTime="0.00" timeLoss="3.96" rerouteNo="0" devices="tripinfo_192" vType="DEFAULT_VEHTYPE" speedFactor="1.12" vaporized=""/>
    <tripinfo id="48" depart="16.00" departLane="73_4way_33to4way_32_0" departPos="5.10" departSpeed="0.00" departDelay="0.76" arrival="78.00" arrivalLane="71_4way_32to4way_31_0" arrivalPos="85.60" arrivalSpeed="10.56" duration="62.00" routeLength="180.50" waitingTime="38.00" waitingCount="1" stopTime="0.00" timeLoss="46.39" rerouteNo="0" devices="tripinfo_48" vType="DEFAULT_VEHTYPE" speedFactor="0.83" vaporized=""/>
    <tripinfo id="96" depart="31.00" departLane="2_3way_7to3way_1_0" departPos="5.10" departSpeed="0.00" departDelay="0.53" arrival="79.00" arrivalLane="10_3way_2to3way_3_0" arrivalPos="85.60" arrivalSpeed="12.29" duration="48.00" routeLength="383.70" waitingTime="9.00" waitingCount="1" stopTime="0.00" timeLoss="18.66" rerouteNo="0" devices="tripinfo_96" vType="DEFAULT_VEHTYPE" speedFactor="0.95" vaporized=""/>
    <tripinfo id="119" depart="40.00" departLane="15_3way_21to4way_22_0" departPos="5.10" departSpeed="0.00" departDelay="2.23" arrival="79.00" arrivalLane="60_4way_23to4way_24_0" arrivalPos="85.60" arrivalSpeed="11.69" duration="39.00" routeLength="280.50" waitingTime="5.00" waitingCount="1" stopTime="0.00" timeLoss="16.15" rerouteNo="0" devices="tripinfo_119" vType="DEFAULT_VEHTYPE" speedFactor="0.90" vaporized=""/>
    <tripinfo id="13" depart="5.00" departLane="7_3way_14to3way_21_0" departPos="5.10" departSpeed="0.00" departDelay="0.87" arrival="80.00" arrivalLane="19_3way_28to4way_29_0" arrivalPos="85.60" arrivalSpeed="12.97" duration="75.00" routeLength="275.13" waitingTime="42.00" waitingCount="1" stopTime="0.00" timeLoss="52.94" rerouteNo="0" devices="tripinfo_13" vType="DEFAULT_VEHTYPE" speedFactor="0.98" vaporized=""/>
    <tripinfo id="136" depart="44.00" departLane="74_4way_39to4way_32_0" departPos="5.10" departSpeed="0.00" departDelay="0.83" arrival="81.00" arrivalLane="69_4way_31to4way_30_0" arrivalPos="85.60" arrivalSpeed="12.19" duration="37.00" routeLength="275.13" waitingTime="6.00" waitingCount="1" stopTime="0.00" timeLoss="16.85" rerouteNo="0" devices="tripinfo_136" vType="DEFAULT_VEHTYPE" speedFactor="1.01" vaporized=""/>
    <tripinfo id="149" depart="48.00" departLane="20_3way_3to3way_4_0" departPos="5.10" departSpeed="0.00" departDelay="0.71" arrival="81.00" arrivalLane="5_3way_5to3way_13_0" arrivalPos="188.80" arrivalSpeed="12.61" duration="33.00" routeLength="383.70" waitingTime="0.00" waitingCount="0" stopTime="0.00" timeLoss="4.00" rerouteNo="0" devices="tripinfo_149" vType="DEFAULT_VEHTYPE" speedFactor="0.95" vaporized=""/>
    <tripinfo id="65" depart="21.00" departLane="70_4way_37to4way_30_0" departPos="5.10" departSpeed="0.00" departDelay="0.37" arrival="82.00" arrivalLane="52_4way_16to4way_9_0" arrivalPos="85.60" arrivalSpeed="16.31" duration="61.00" routeLength="380.50" waitingTime="28.00" waitingCount="1" stopTime="0.00" timeLoss="38.01" rerouteNo="0" devices="tripinfo_65" vType="DEFAULT_VEHTYPE" speedFactor="1.20" vaporized=""/>
    <tripinfo id="78" depart="25.00" departLane="65_4way_32to4way_25_0" departPos="5.10" departSpeed="0.00" departDelay="0.24" arrival="82.00" arrivalLane="62_4way_25to4way_24_0" arrivalPos="85.60" arrivalSpeed="13.73" duration="57.00" routeLength="175.13" waitingTime="33.00" waitingCount="1" stopTime="0.00" timeLoss="43.44" rerouteNo="0" devices="tripinfo_78" vType="DEFAULT_VEHTYPE" speedFactor="1.03" vaporized=""/>
    <tripinfo id="129" depart="41.00" departLane="41_4way_11to4way_10_0" departPos="5.10" departSpeed="0.00" departDelay="0.05" arrival="82.00" arrivalLane="41_4way_11to4way_10_0" arrivalPos="85.60" arrivalSpeed="9.50" duration="41.00" routeLength="80.50" waitingTime="24.00" waitingCount="1" stopTime="0.00" timeLoss="35.70" rerouteNo="0" devices="tripinfo_129" vType="DEFAULT_VEHTYPE" speedFactor="1.14" vaporized=""/>
    <tripinfo id="201" depart="64.00" departLane="40_3way_7to4way_8_0" departPos="5.10" departSpeed="0.00" departDelay="0.20" arrival="84.00" arrivalLane="3_4way_8to3way_1_0" arrivalPos="85.60" arrivalSpeed="12.40" duration="20.00" routeLength="175.13" waitingTime="0.00" waitingCount="0" stopTime="0.00" timeLoss="5.88" rerouteNo="0" devices="tripinfo_201" vType="DEFAULT_VEHTYPE" speedFactor="0.93" vaporized=""/>
    <tripinfo id="25" depart="8.00" departLane="37_3way_46to4way_39_0" departPos="5.10" departSpeed="0.00" departDelay="0.06" arrival="85.00" arrivalLane="77_4way_38to4way_37_0" arrivalPos="85.60" arrivalSpeed="12.48" duration="77.00" routeLength="275.13" waitingTime="46.00" waitingCount="1" stopTime="0.00" timeLoss="55.22" rerouteNo="0" devices="tripinfo_25" vType="DEFAULT_VEHTYPE" speedFactor="0.95" vaporized=""/>
    <tripinfo id="141" depart="46.00" departLane="61_4way_30to4way_23_0" departPos="5.10" departSpeed="0.00" departDelay="1.25" arrival="85.00" arrivalLane="58_4way_23to4way_22_0" arrivalPos="85.60" arrivalSpeed="12.61" duration="39.00" routeLength="175.13" waitingTime="13.00" waitingCount="1" stopTime="0.00" timeLoss="25.28" rerouteNo="0" devices="tripinfo_141" vType="DEFAULT_VEHTYPE" speedFactor="0.99" vaporized=""/>
    <tripinfo id="75" depart="24.00" departLane="52_4way_9to4way_16_0" departPos="5.10" departSpeed="0.00" departDelay="0.19" arrival="88.00" arrivalLane="53_4way_17to4way_18_0" arrivalPos="85.60" arrivalSpeed="14.81" duration="64.00" routeLength="275.13" waitingTime="32.00" waitingCount="1" stopTime="0.00" timeLoss="44.49" rerouteNo="0" devices="tripinfo_75" vType="DEFAULT_VEHTYPE" speedFactor="1.09" vaporized=""/>
    <tripinfo id="86" depart="28.00" departLane="11_3way_2to4way_9_0" departPos="5.10" departSpeed="0.00" departDelay="0.70" arrival="88.00" arrivalLane="50_4way_16to4way_17_0" arrivalPos="85.60" arrivalSpeed="14.17" duration="60.00" routeLength="275.13" waitingTime="28.00" waitingCount="1" stopTime="0.00" timeLoss="40.63" rerouteNo="0" devices="tripinfo_86" vType="DEFAULT_VEHTYPE" speedFactor="1.06" vaporized=""/>
    <tripinfo id="103" depart="33.00" departLane="37_3way_46to4way_39_0" departPos="5.10" departSpeed="0.00" departDelay="0.31" arrival="88.00" arrivalLane="77_4way_38to4way_37_0" arrivalPos="85.60" arrivalSpeed="15.16" duration="55.00" routeLength="275.13" waitingTime="25.00" waitingCount="1" stopTime="0.00" timeLoss="36.53" rerouteNo="0" devices="tripinfo_103" vType="DEFAULT_VEHTYPE" speedFactor="1.15" vaporized=""/>
    <tripinfo id="131" depart="42.00" departLane="49_4way_15to4way_8_0" departPos="5.10" departSpeed="0.00" departDelay="0.42" arrival="88.00" arrivalLane="10_3way_2to3way_3_0" arrivalPos="85.60" arrivalSpeed="11.06" duration="46.00" routeLength="380.29" waitingTime="3.00" waitingCount="1" stopTime="0.00" timeLoss="11.35" rerouteNo="0" devices="tripinfo_131" vType="DEFAULT_VEHTYPE" speedFactor="0.82" vaporized=""/>
    <tripinfo id="27" depart="11.00" departLane="39_3way_5to4way_12_0" departPos="5.10" departSpeed="0.00" departDelay="2.43" arrival="89.00" arrivalLane="17_4way_26to3way_27_0" arrivalPos="85.60" arrivalSpeed="14.27" duration="78.00" routeLength="375.13" waitingTime="37.00" waitingCount="1" stopTime="0.00" timeLoss="50.42" rerouteNo="0" devices="tripinfo_27" vType="DEFAULT_VEHTYPE" speedFactor="1.03" vaporized=""/>
    <tripinfo id="51" depart="17.00" departLane="66_4way_26to4way_33_0" departPos="5.10" departSpeed="0.00" departDelay="0.81" arrival="89.00" arrivalLane="38_4way_40to3way_47_0" arrivalPos="85.60" arrivalSpeed="10.15" duration="72.00" routeLength="280.50" waitingTime="37.00" waitingCount="1" stopTime="0.00" timeLoss="44.77" rerouteNo="0" devices="tripinfo_51" vType="DEFAULT_VEHTYPE" speedFactor="0.74" vaporized=""/>
    <tripinfo id="134" depart="43.00" departLane="66_4way_26to4way_33_0" departPos="5.10" departSpeed="0.00" departDelay="0.47" arrival="91.00" arrivalLane="38_4way_40to3way_47_0" arrivalPos="85.60" arrivalSpeed="12.79" duration="48.00" routeLength="280.50" waitingTime="13.00" waitingCount="1" stopTime="0.00" timeLoss="27.31" rerouteNo="0" devices="tripinfo_134" vType="DEFAULT_VEHTYPE" speedFactor="1.00" vaporized=""/>
    <tripinfo id="154" depart="49.00" departLane="80_4way_9to4way_8_0" departPos="5.10" departSpeed="0.00" departDelay="0.12" arrival="92.00" arrivalLane="8_3way_7to3way_14_0" arrivalPos="85.60" arrivalSpeed="10.39" duration="43.00" routeLength="275.13" waitingTime="8.00" waitingCount="1" stopTime="0.00" timeLoss="18.32" rerouteNo="0" devices="tripinfo_154" vType="DEFAULT_VEHTYPE" speedFactor="0.84" vaporized=""/>
    <tripinfo id="200" depart="64.00" departLane="11_3way_2to4way_9_0" departPos="5.10" departSpeed="0.00" departDelay="0.52" arrival="93.00" arrivalLane="51_4way_16to4way_23_0" arrivalPos="85.60" arrivalSpeed="13.06" duration="29.00" routeLength="280.50" waitingTime="0.00" waitingCount="0" stopTime="0.00" timeLoss="7.33" rerouteNo="0" devices="tripinfo_200" vType="DEFAULT_VEHTYPE" speedFactor="0.96" vaporized=""/>
    <tripinfo id="115" depart="37.00" departLane="40_4way_8to3way_7_0" departPos="5.10" departSpeed="0.00" departDelay="0.50" arrival="94.00" arrivalLane="14_3way_21to3way_28_0" arrivalPos="85.60" arrivalSpeed="11.69" duration="57.00" routeLength="375.13" waitingTime="17.00" waitingCount="1" stopTime="0.00" timeLoss="26.45" rerouteNo="0" devices="tripinfo_115" vType="DEFAULT_VEHTYPE" speedFactor="0.92" vaporized=""/>
    <tripinfo id="20" depart="7.00" departLane="4_3way_13to3way_20_0" departPos="5.10" departSpeed="0.00" departDelay="0.65" arrival="95.00" arrivalLane="22_3way_34to3way_41_0" arrivalPos="85.60" arrivalSpeed="11.70" duration="88.00" routeLength="380.50" waitingTime="47.00" waitingCount="1" stopTime="0.00" timeLoss="56.80" rerouteNo="0" devices="tripinfo_20" vType="DEFAULT_VEHTYPE" speedFactor="0.89" vaporized=""/>
    <tripinfo id="23" depart="8.00" departLane="39_3way_5to4way_12_0" departPos="5.10" departSpeed="0.00" departDelay="0.70" arrival="95.00" arrivalLane="75_4way_33to4way_40_0" arrivalPos="85.60" arrivalSpeed="12.12" duration="87.00" routeLength="480.50" waitingTime="39.00" waitingCount="1" stopTime="0.00" timeLoss="47.03" rerouteNo="0" devices="tripinfo_23" vType="DEFAULT_VEHTYPE" speedFactor="0.87" vaporized=""/>
    <tripinfo id="59" depart="19.00" departLane="51_4way_23to4way_16_0" departPos="5.10" departSpeed="0.00" departDelay="0.27" arrival="95.00" arrivalLane="40_4way_8to3way_7_0" arrivalPos="85.60" arrivalSpeed="13.61" duration="76.00" routeLength="375.13" waitingTime="37.00" waitingCount="1" stopTime="0.00" timeLoss="49.18" rerouteNo="0" devices="tripinfo_59" vType="DEFAULT_VEHTYPE" speedFactor="1.03" vaporized=""/>
    <tripinfo id="247" depart="79.00" departLane="69_4way_31to4way_30_0" departPos="5.10" departSpeed="0.00" departDelay="0.60" arrival="95.00" arrivalLane="67_4way_30to4way_29_0" arrivalPos="85.60" arrivalSpeed="14.15" duration="16.00" routeLength="180.50" waitingTime="0.00" waitingCount="0" stopTime="0.00" timeLoss="3.67" rerouteNo="0" devices="tripinfo_247" vType="DEFAULT_VEHTYPE" speedFactor="1.07" vaporized=""/>
    <tripinfo id="269" depart="86.00" departLane="53_4way_18to4way_17_0" departPos="5.10" departSpeed="0.00" departDelay="0.62" arrival="95.00" arrivalLane="53_4way_18to4way_17_0" arrivalPos="85.60" arrivalSpeed="15.21" duration="9.00" routeLength="80.50" waitingTime="0.00" waitingCount="0" stopTime="0.00" timeLoss="3.42" rerouteNo="0" devices="tripinfo_269" vType="DEFAULT_VEHTYPE" speedFactor="1.11" vaporized=""/>
    <tripinfo id="267" depart="87.00" departLane="51_4way_16to4way_23_0" departPos="5.10" departSpeed="0.00" departDelay="2.25" arrival="96.00" arrivalLane="51_4way_16to4way_23_0" arrivalPos="85.60" arrivalSpeed="15.38" duration="9.00" routeLength="80.50" waitingTime="0.00" waitingCount="0" stopTime="0.00" timeLoss="3.54" rerouteNo="0" devices="tripinfo_267" vType="DEFAULT_VEHTYPE" speedFactor="1.11" vaporized=""/>
    <tripinfo id="220" depart="70.00" departLane="46_4way_12to4way_19_0" departPos="5.10" departSpeed="0.00" departDelay="0.17" arrival="97.00" arrivalLane="66_4way_26to4way_33_0" arrivalPos="85.60" arrivalSpeed="11.97" duration="27.00" routeLength="280.50" waitingTime="0.00" waitingCount="0" stopTime="0.00" timeLoss="4.18" rerouteNo="0" devices="tripinfo_220" vType="DEFAULT_VEHTYPE" speedFactor="0.92" vaporized=""/>
    <tripinfo id="223" depart="71.00" departLane="38_3way_47to4way_40_0" departPos="5.10" departSpeed="0.00" departDelay="0.22" arrival="97.00" arrivalLane="66_4way_33to4way_26_0" arrivalPos="85.60" arrivalSpeed="13.42" duration="26.00" routeLength="280.50" waitingTime="0.00" waitingCount="0" stopTime="0.00" timeLoss="6.35" rerouteNo="0" devices="tripinfo_223" vType="DEFAULT_VEHTYPE" speedFactor="1.03" vaporized=""/>