<?xml version="1.0" encoding="UTF-8"?>

<!-- generated on 2023-07-27 14:09:56 by Eclipse SUMO sumo Version 1.12.0
<configuration xmlns:xsi="http://www.w3.org/2001/XMLSchema-instance" xsi:noNamespaceSchemaLocation="http://sumo.dlr.de/xsd/sumoConfiguration.xsd">

    <input>
        <net-file value="../../data_generation/sq.net.xml"/>
        <route-files value="../../data_generation/sq.rou.xml"/>
    </input>

    <output>
        <tripinfo-output value="tripinfo.xml"/>
        <statistic-output value="statistic.xml"/>
    </output>

    <time>
        <begin value="0"/>
        <end value="3600"/>
    </time>

    <processing>
        <time-to-teleport value="-1"/>
    </processing>

    <traci_server>
        <remote-port value="52637"/>
    </traci_server>

    <random_number>
        <seed value="1395"/>
    </random_number>

    <gui_only>
        <gui-settings-file value="../../data_generation/view_HY_0402.xml"/>
    </gui_only>

</configuration>
-->

<tripinfos xmlns:xsi="http://www.w3.org/2001/XMLSchema-instance" xsi:noNamespaceSchemaLocation="http://sumo.dlr.de/xsd/tripinfo_file.xsd">
    <tripinfo id="21" depart="7.00" departLane="24_3way_31to3way_32_0" departPos="5.10" departSpeed="0.00" departDelay="0.00" arrival="17.00" arrivalLane="24_3way_31to3way_32_0" arrivalPos="85.60" arrivalSpeed="10.84" duration="10.00" routeLength="80.50" waitingTime="0.00" waitingCount="0" stopTime="0.00" timeLoss="2.61" rerouteNo="0" devices="tripinfo_21" vType="DEFAULT_VEHTYPE" speedFactor="0.82" vaporized=""/>
    <tripinfo id="24" depart="8.00" departLane="10_3way_17to3way_23_0" departPos="5.10" departSpeed="0.00" departDelay="0.00" arrival="17.00" arrivalLane="10_3way_17to3way_23_0" arrivalPos="85.60" arrivalSpeed="12.23" duration="9.00" routeLength="80.50" waitingTime="0.00" waitingCount="0" stopTime="0.00" timeLoss="2.95" rerouteNo="0" devices="tripinfo_24" vType="DEFAULT_VEHTYPE" speedFactor="0.97" vaporized=""/>
    <tripinfo id="0" depart="0.00" departLane="39_4way_20to4way_14_0" departPos="5.10" departSpeed="0.00" departDelay="0.00" arrival="18.00" arrivalLane="35_4way_14to4way_13_0" arrivalPos="85.60" arrivalSpeed="13.68" duration="18.00" routeLength="175.13" waitingTime="0.00" waitingCount="0" stopTime="0.00" timeLoss="4.86" rerouteNo="0" devices="tripinfo_0" vType="DEFAULT_VEHTYPE" speedFactor="1.00" vaporized=""/>
    <tripinfo id="11" depart="4.00" departLane="56_4way_8to4way_9_0" departPos="5.10" departSpeed="0.00" departDelay="0.33" arrival="31.00" arrivalLane="31_4way_10to3way_4_0" arrivalPos="85.60" arrivalSpeed="13.08" duration="27.00" routeLength="275.13" waitingTime="0.00" waitingCount="0" stopTime="0.00" timeLoss="6.14" rerouteNo="0" devices="tripinfo_11" vType="DEFAULT_VEHTYPE" speedFactor="1.01" vaporized=""/>
    <tripinfo id="17" depart="6.00" departLane="39_4way_14to4way_20_0" departPos="5.10" departSpeed="0.00" departDelay="0.33" arrival="33.00" arrivalLane="49_4way_21to4way_22_0" arrivalPos="85.60" arrivalSpeed="13.38" duration="27.00" routeLength="275.13" waitingTime="0.00" waitingCount="0" stopTime="0.00" timeLoss="7.34" rerouteNo="0" devices="tripinfo_17" vType="DEFAULT_VEHTYPE" speedFactor="1.04" vaporized=""/>
    <tripinfo id="19" depart="7.00" departLane="15_3way_2to4way_8_0" departPos="5.10" departSpeed="0.00" departDelay="0.67" arrival="34.00" arrivalLane="39_4way_14to4way_20_0" arrivalPos="85.60" arrivalSpeed="11.98" duration="27.00" routeLength="280.50" waitingTime="0.00" waitingCount="0" stopTime="0.00" timeLoss="3.84" rerouteNo="0" devices="tripinfo_19" vType="DEFAULT_VEHTYPE" speedFactor="0.89" vaporized=""/>
    <tripinfo id="50" depart="17.00" departLane="17_4way_22to3way_23_0" departPos="5.10" departSpeed="0.00" departDelay="0.33" arrival="36.00" arrivalLane="16_3way_23to3way_29_0" arrivalPos="85.60" arrivalSpeed="13.51" duration="19.00" routeLength="180.29" waitingTime="0.00" waitingCount="0" stopTime="0.00" timeLoss="4.69" rerouteNo="0" devices="tripinfo_50" vType="DEFAULT_VEHTYPE" speedFactor="1.01" vaporized=""/>
    <tripinfo id="76" depart="26.00" departLane="53_4way_27to4way_26_0" departPos="5.10" departSpeed="0.00" departDelay="0.67" arrival="36.00" arrivalLane="53_4way_27to4way_26_0" arrivalPos="85.60" arrivalSpeed="11.97" duration="10.00" routeLength="80.50" waitingTime="0.00" waitingCount="0" stopTime="0.00" timeLoss="3.03" rerouteNo="0" devices="tripinfo_76" vType="DEFAULT_VEHTYPE" speedFactor="0.90" vaporized=""/>
    <tripinfo id="42" depart="14.00" departLane="39_4way_14to4way_20_0" departPos="5.10" departSpeed="0.00" departDelay="0.00" arrival="39.00" arrivalLane="27_4way_26to3way_32_0" arrivalPos="85.60" arrivalSpeed="13.01" duration="25.00" routeLength="280.50" waitingTime="0.00" waitingCount="0" stopTime="0.00" timeLoss="4.25" rerouteNo="0" devices="tripinfo_42" vType="DEFAULT_VEHTYPE" speedFactor="0.99" vaporized=""/>
    <tripinfo id="58" depart="20.00" departLane="19_4way_25to3way_24_0" departPos="5.10" departSpeed="0.00" departDelay="0.67" arrival="40.00" arrivalLane="12_3way_24to3way_18_0" arrivalPos="85.60" arrivalSpeed="12.33" duration="20.00" routeLength="180.29" waitingTime="0.00" waitingCount="0" stopTime="0.00" timeLoss="4.71" rerouteNo="0" devices="tripinfo_58" vType="DEFAULT_VEHTYPE" speedFactor="0.93" vaporized=""/>
    <tripinfo id="77" depart="30.00" departLane="54_4way_27to4way_28_0" departPos="5.10" departSpeed="0.00" departDelay="4.34" arrival="40.00" arrivalLane="54_4way_27to4way_28_0" arrivalPos="85.60" arrivalSpeed="12.68" duration="10.00" routeLength="80.50" waitingTime="0.00" waitingCount="0" stopTime="0.00" timeLoss="3.30" rerouteNo="0" devices="tripinfo_77" vType="DEFAULT_VEHTYPE" speedFactor="0.99" vaporized=""/>
    <tripinfo id="34" depart="12.00" departLane="15_3way_2to4way_8_0" departPos="5.10" departSpeed="0.00" departDelay="0.67" arrival="48.00" arrivalLane="48_4way_20to4way_26_0" arrivalPos="85.60" arrivalSpeed="12.44" duration="36.00" routeLength="380.50" waitingTime="0.00" waitingCount="0" stopTime="0.00" timeLoss="7.15" rerouteNo="0" devices="tripinfo_34" vType="DEFAULT_VEHTYPE" speedFactor="0.96" vaporized=""/>
    <tripinfo id="67" depart="27.00" departLane="47_4way_20to4way_21_0" departPos="5.10" departSpeed="0.00" departDelay="4.67" arrival="48.00" arrivalLane="42_4way_21to4way_15_0" arrivalPos="85.60" arrivalSpeed="11.21" duration="21.00" routeLength="175.13" waitingTime="0.00" waitingCount="0" stopTime="0.00" timeLoss="5.30" rerouteNo="0" devices="tripinfo_67" vType="DEFAULT_VEHTYPE" speedFactor="0.88" vaporized=""/>
    <tripinfo id="93" depart="32.00" departLane="20_3way_34to3way_29_0" departPos="5.10" departSpeed="0.00" departDelay="1.00" arrival="49.00" arrivalLane="20_3way_34to3way_29_0" arrivalPos="182.40" arrivalSpeed="12.87" duration="17.00" routeLength="177.30" waitingTime="0.00" waitingCount="0" stopTime="0.00" timeLoss="3.59" rerouteNo="0" devices="tripinfo_93" vType="DEFAULT_VEHTYPE" speedFactor="1.00" vaporized=""/>
    <tripinfo id="97" depart="33.00" departLane="14_3way_3to3way_2_0" departPos="5.10" departSpeed="0.00" departDelay="0.67" arrival="50.00" arrivalLane="1_3way_2to3way_1_0" arrivalPos="85.60" arrivalSpeed="14.32" duration="17.00" routeLength="180.50" waitingTime="0.00" waitingCount="0" stopTime="0.00" timeLoss="4.17" rerouteNo="0" devices="tripinfo_97" vType="DEFAULT_VEHTYPE" speedFactor="1.06" vaporized=""/>
    <tripinfo id="98" depart="33.00" departLane="9_3way_12to4way_13_0" departPos="5.10" departSpeed="0.00" departDelay="0.34" arrival="51.00" arrivalLane="35_4way_13to4way_14_0" arrivalPos="85.60" arrivalSpeed="11.54" duration="18.00" routeLength="180.50" waitingTime="0.00" waitingCount="0" stopTime="0.00" timeLoss="3.28" rerouteNo="0" devices="tripinfo_98" vType="DEFAULT_VEHTYPE" speedFactor="0.88" vaporized=""/>
    <tripinfo id="84" depart="28.00" departLane="15_3way_2to4way_8_0" departPos="5.10" departSpeed="0.00" departDelay="0.00" arrival="52.00" arrivalLane="39_4way_14to4way_20_0" arrivalPos="85.60" arrivalSpeed="14.04" duration="24.00" routeLength="280.50" waitingTime="0.00" waitingCount="0" stopTime="0.00" timeLoss="4.35" rerouteNo="0" devices="tripinfo_84" vType="DEFAULT_VEHTYPE" speedFactor="1.06" vaporized=""/>
    <tripinfo id="127" depart="43.00" departLane="38_4way_15to4way_14_0" departPos="5.10" departSpeed="0.00" departDelay="0.67" arrival="52.00" arrivalLane="38_4way_15to4way_14_0" arrivalPos="85.60" arrivalSpeed="13.56" duration="9.00" routeLength="80.50" waitingTime="0.00" waitingCount="0" stopTime="0.00" timeLoss="3.08" rerouteNo="0" devices="tripinfo_127" vType="DEFAULT_VEHTYPE" speedFactor="1.00" vaporized=""/>
    <tripinfo id="57" depart="19.00" departLane="40_4way_8to4way_14_0" departPos="5.10" departSpeed="0.00" departDelay="0.00" arrival="54.00" arrivalLane="49_4way_21to4way_22_0" arrivalPos="85.60" arrivalSpeed="12.42" duration="35.00" routeLength="375.13" waitingTime="0.00" waitingCount="0" stopTime="0.00" timeLoss="5.92" rerouteNo="0" devices="tripinfo_57" vType="DEFAULT_VEHTYPE" speedFactor="0.97" vaporized=""/>
    <tripinfo id="135" depart="46.00" departLane="29_4way_27to3way_33_0" departPos="5.10" departSpeed="0.00" departDelay="1.00" arrival="55.00" arrivalLane="29_4way_27to3way_33_0" arrivalPos="85.60" arrivalSpeed="14.37" duration="9.00" routeLength="80.50" waitingTime="0.00" waitingCount="0" stopTime="0.00" timeLoss="3.67" rerouteNo="0" devices="tripinfo_135" vType="DEFAULT_VEHTYPE" speedFactor="1.09" vaporized=""/>
    <tripinfo id="103" depart="35.00" departLane="18_3way_24to3way_31_0" departPos="5.10" departSpeed="0.00" departDelay="0.67" arrival="57.00" arrivalLane="24_3way_31to3way_32_0" arrivalPos="85.60" arrivalSpeed="14.99" duration="22.00" routeLength="277.30" waitingTime="0.00" waitingCount="0" stopTime="0.00" timeLoss="4.41" rerouteNo="0" devices="tripinfo_103" vType="DEFAULT_VEHTYPE" speedFactor="1.15" vaporized=""/>
    <tripinfo id="102" depart="34.00" departLane="23_4way_9to3way_3_0" departPos="5.10" departSpeed="0.00" departDelay="0.00" arrival="59.00" arrivalLane="1_3way_2to3way_1_0" arrivalPos="85.60" arrivalSpeed="13.89" duration="25.00" routeLength="275.13" waitingTime="0.00" waitingCount="0" stopTime="0.00" timeLoss="5.38" rerouteNo="0" devices="tripinfo_102" vType="DEFAULT_VEHTYPE" speedFactor="1.05" vaporized=""/>
    <tripinfo id="153" depart="51.00" departLane="53_4way_26to4way_27_0" departPos="5.10" departSpeed="0.00" departDelay="0.00" arrival="61.00" arrivalLane="53_4way_26to4way_27_0" arrivalPos="85.60" arrivalSpeed="11.89" duration="10.00" routeLength="80.50" waitingTime="0.00" waitingCount="0" stopTime="0.00" timeLoss="2.89" rerouteNo="0" devices="tripinfo_153" vType="DEFAULT_VEHTYPE" speedFactor="0.90" vaporized=""/>
    <tripinfo id="157" depart="53.00" departLane="39_4way_20to4way_14_0" departPos="5.10" departSpeed="0.00" departDelay="0.67" arrival="63.00" arrivalLane="39_4way_20to4way_14_0" arrivalPos="85.60" arrivalSpeed="11.80" duration="10.00" routeLength="80.50" waitingTime="0.00" waitingCount="0" stopTime="0.00" timeLoss="3.17" rerouteNo="0" devices="tripinfo_157" vType="DEFAULT_VEHTYPE" speedFactor="0.94" vaporized=""/>
    <tripinfo id="139" depart="47.00" departLane="55_4way_8to4way_7_0" departPos="5.10" departSpeed="0.00" departDelay="0.67" arrival="64.00" arrivalLane="32_4way_7to3way_6_0" arrivalPos="85.60" arrivalSpeed="14.90" duration="17.00" routeLength="180.50" waitingTime="0.00" waitingCount="0" stopTime="0.00" timeLoss="4.39" rerouteNo="0" devices="tripinfo_139" vType="DEFAULT_VEHTYPE" speedFactor="1.09" vaporized=""/>
    <tripinfo id="141" depart="47.00" departLane="17_3way_23to4way_22_0" departPos="5.10" departSpeed="0.00" departDelay="0.00" arrival="64.00" arrivalLane="49_4way_22to4way_21_0" arrivalPos="85.60" arrivalSpeed="12.64" duration="17.00" routeLength="180.50" waitingTime="0.00" waitingCount="0" stopTime="0.00" timeLoss="3.81" rerouteNo="0" devices="tripinfo_141" vType="DEFAULT_VEHTYPE" speedFactor="0.99" vaporized=""/>
    <tripinfo id="168" depart="56.00" departLane="15_3way_2to4way_8_0" departPos="5.10" departSpeed="0.00" departDelay="0.01" arrival="65.00" arrivalLane="15_3way_2to4way_8_0" arrivalPos="85.60" arrivalSpeed="14.69" duration="9.00" routeLength="80.50" waitingTime="0.00" waitingCount="0" stopTime="0.00" timeLoss="3.32" rerouteNo="0" devices="tripinfo_168" vType="DEFAULT_VEHTYPE" speedFactor="1.10" vaporized=""/>
    <tripinfo id="170" depart="57.00" departLane="35_4way_14to4way_13_0" departPos="5.10" departSpeed="0.00" departDelay="0.34" arrival="66.00" arrivalLane="35_4way_14to4way_13_0" arrivalPos="85.60" arrivalSpeed="13.19" duration="9.00" routeLength="80.50" waitingTime="0.00" waitingCount="0" stopTime="0.00" timeLoss="2.95" rerouteNo="0" devices="tripinfo_170" vType="DEFAULT_VEHTYPE" speedFactor="1.00" vaporized=""/>
    <tripinfo id="174" depart="58.00" departLane="9_3way_12to4way_13_0" departPos="5.10" departSpeed="0.00" departDelay="0.01" arrival="68.00" arrivalLane="9_3way_12to4way_13_0" arrivalPos="85.60" arrivalSpeed="11.90" duration="10.00" routeLength="80.50" waitingTime="0.00" waitingCount="0" stopTime="0.00" timeLoss="3.21" rerouteNo="0" devices="tripinfo_174" vType="DEFAULT_VEHTYPE" speedFactor="0.94" vaporized=""/>
    <tripinfo id="145" depart="49.00" departLane="43_4way_9to4way_15_0" departPos="5.10" departSpeed="0.00" departDelay="0.67" arrival="70.00" arrivalLane="41_4way_15to4way_16_0" arrivalPos="85.60" arrivalSpeed="6.75" duration="21.00" routeLength="175.13" waitingTime="0.00" waitingCount="0" stopTime="0.00" timeLoss="6.73" rerouteNo="0" devices="tripinfo_145" vType="DEFAULT_VEHTYPE" speedFactor="0.96" vaporized=""/>
    <tripinfo id="100" depart="34.00" departLane="17_3way_23to4way_22_0" departPos="5.10" departSpeed="0.00" departDelay="0.67" arrival="71.00" arrivalLane="51_4way_22to4way_28_0" arrivalPos="85.60" arrivalSpeed="5.99" duration="37.00" routeLength="175.13" waitingTime="12.00" waitingCount="1" stopTime="0.00" timeLoss="25.61" rerouteNo="0" devices="tripinfo_100" vType="DEFAULT_VEHTYPE" speedFactor="1.20" vaporized=""/>
    <tripinfo id="55" depart="24.00" departLane="47_4way_20to4way_21_0" departPos="5.10" departSpeed="0.00" departDelay="5.67" arrival="72.00" arrivalLane="33_4way_16to4way_10_0" arrivalPos="85.60" arrivalSpeed="7.38" duration="48.00" routeLength="375.13" waitingTime="8.00" waitingCount="1" stopTime="0.00" timeLoss="18.70" rerouteNo="0" devices="tripinfo_55" vType="DEFAULT_VEHTYPE" speedFactor="0.94" vaporized=""/>
    <tripinfo id="2" depart="1.00" departLane="55_4way_8to4way_7_0" departPos="5.10" departSpeed="0.00" departDelay="0.33" arrival="73.00" arrivalLane="7_3way_12to3way_18_0" arrivalPos="85.60" arrivalSpeed="7.93" duration="72.00" routeLength="375.13" waitingTime="35.00" waitingCount="1" stopTime="0.00" timeLoss="45.11" rerouteNo="0" devices="tripinfo_2" vType="DEFAULT_VEHTYPE" speedFactor="1.04" vaporized=""/>
    <tripinfo id="88" depart="32.00" departLane="36_4way_19to4way_13_0" departPos="5.10" departSpeed="0.00" departDelay="2.67" arrival="73.00" arrivalLane="36_4way_19to4way_13_0" arrivalPos="85.60" arrivalSpeed="7.95" duration="41.00" routeLength="80.50" waitingTime="26.00" waitingCount="1" stopTime="0.00" timeLoss="35.26" rerouteNo="0" devices="tripinfo_88" vType="DEFAULT_VEHTYPE" speedFactor="1.06" vaporized=""/>
    <tripinfo id="91" depart="31.00" departLane="17_4way_22to3way_23_0" departPos="5.10" departSpeed="0.00" departDelay="0.67" arrival="73.00" arrivalLane="10_3way_23to3way_17_0" arrivalPos="85.60" arrivalSpeed="8.94" duration="42.00" routeLength="175.13" waitingTime="17.00" waitingCount="1" stopTime="0.00" timeLoss="28.94" rerouteNo="0" devices="tripinfo_91" vType="DEFAULT_VEHTYPE" speedFactor="1.04" vaporized=""/>
    <tripinfo id="109" depart="37.00" departLane="53_4way_26to4way_27_0" departPos="5.10" departSpeed="0.00" departDelay="0.67" arrival="73.00" arrivalLane="51_4way_28to4way_22_0" arrivalPos="85.60" arrivalSpeed="8.44" duration="36.00" routeLength="275.13" waitingTime="6.00" waitingCount="1" stopTime="0.00" timeLoss="15.93" rerouteNo="0" devices="tripinfo_109" vType="DEFAULT_VEHTYPE" speedFactor="1.04" vaporized=""/>
    <tripinfo id="111" depart="38.00" departLane="3_3way_1to4way_7_0" departPos="5.10" departSpeed="0.00" departDelay="1.00" arrival="75.00" arrivalLane="3_3way_1to4way_7_0" arrivalPos="85.60" arrivalSpeed="10.46" duration="37.00" routeLength="80.50" waitingTime="22.00" waitingCount="1" stopTime="0.00" timeLoss="29.28" rerouteNo="0" devices="tripinfo_111" vType="DEFAULT_VEHTYPE" speedFactor="0.84" vaporized=""/>
    <tripinfo id="123" depart="41.00" departLane="36_4way_19to4way_13_0" departPos="5.10" departSpeed="0.00" departDelay="0.00" arrival="75.00" arrivalLane="36_4way_19to4way_13_0" arrivalPos="85.60" arrivalSpeed="8.19" duration="34.00" routeLength="80.50" waitingTime="18.00" waitingCount="1" stopTime="0.00" timeLoss="28.45" rerouteNo="0" devices="tripinfo_123" vType="DEFAULT_VEHTYPE" speedFactor="1.06" vaporized=""/>
    <tripinfo id="1" depart="1.00" departLane="36_4way_13to4way_19_0" departPos="5.10" departSpeed="0.00" departDelay="0.67" arrival="77.00" arrivalLane="46_4way_19to4way_25_0" arrivalPos="85.60" arrivalSpeed="14.32" duration="76.00" routeLength="180.50" waitingTime="53.00" waitingCount="1" stopTime="0.00" timeLoss="63.07" rerouteNo="0" devices="tripinfo_1" vType="DEFAULT_VEHTYPE" speedFactor="1.04" vaporized=""/>
    <tripinfo id="12" depart="4.00" departLane="17_4way_22to3way_23_0" departPos="5.10" departSpeed="0.00" departDelay="0.00" arrival="77.00" arrivalLane="4_3way_17to3way_11_0" arrivalPos="85.60" arrivalSpeed="15.56" duration="73.00" routeLength="275.13" waitingTime="41.00" waitingCount="1" stopTime="0.00" timeLoss="53.96" rerouteNo="0" devices="tripinfo_12" vType="DEFAULT_VEHTYPE" speedFactor="1.16" vaporized=""/>
    <tripinfo id="68" depart="23.00" departLane="33_4way_16to4way_10_0" departPos="5.10" departSpeed="0.00" departDelay="0.34" arrival="77.00" arrivalLane="31_4way_10to3way_4_0" arrivalPos="85.60" arrivalSpeed="14.71" duration="54.00" routeLength="180.50" waitingTime="31.00" waitingCount="1" stopTime="0.00" timeLoss="41.51" rerouteNo="0" devices="tripinfo_68" vType="DEFAULT_VEHTYPE" speedFactor="1.09" vaporized=""/>
    <tripinfo id="80" depart="27.00" departLane="1_3way_2to3way_1_0" departPos="5.10" departSpeed="0.00" departDelay="0.34" arrival="77.00" arrivalLane="3_3way_1to4way_7_0" arrivalPos="85.60" arrivalSpeed="9.69" duration="50.00" routeLength="175.13" waitingTime="20.00" waitingCount="1" stopTime="0.00" timeLoss="32.41" rerouteNo="0" devices="tripinfo_80" vType="DEFAULT_VEHTYPE" speedFactor="0.78" vaporized=""/>
    <tripinfo id="107" depart="38.00" departLane="17_4way_22to3way_23_0" departPos="5.10" departSpeed="0.00" departDelay="2.34" arrival="77.00" arrivalLane="10_3way_23to3way_17_0" arrivalPos="85.60" arrivalSpeed="11.87" duration="39.00" routeLength="175.13" waitingTime="12.00" waitingCount="1" stopTime="0.00" timeLoss="25.92" rerouteNo="0" devices="tripinfo_107" vType="DEFAULT_VEHTYPE" speedFactor="1.10" vaporized=""/>
    <tripinfo id="159" depart="53.00" departLane="41_4way_15to4way_16_0" departPos="5.10" departSpeed="0.00" departDelay="0.00" arrival="77.00" arrivalLane="11_4way_16to3way_17_0" arrivalPos="85.60" arrivalSpeed="12.99" duration="24.00" routeLength="180.50" waitingTime="2.00" waitingCount="1" stopTime="0.00" timeLoss="10.59" rerouteNo="0" devices="tripinfo_159" vType="DEFAULT_VEHTYPE" speedFactor="0.99" vaporized=""/>
    <tripinfo id="20" depart="7.00" departLane="4_3way_11to3way_17_0" departPos="5.10" departSpeed="0.00" departDelay="0.33" arrival="78.00" arrivalLane="10_3way_17to3way_23_0" arrivalPos="85.60" arrivalSpeed="11.74" duration="71.00" routeLength="180.50" waitingTime="47.00" waitingCount="1" stopTime="0.00" timeLoss="55.98" rerouteNo="0" devices="tripinfo_20" vType="DEFAULT_VEHTYPE" speedFactor="0.89" vaporized=""/>
    <tripinfo id="48" depart="16.00" departLane="49_4way_22to4way_21_0" departPos="5.10" departSpeed="0.00" departDelay="0.00" arrival="78.00" arrivalLane="48_4way_20to4way_26_0" arrivalPos="85.60" arrivalSpeed="11.35" duration="62.00" routeLength="275.13" waitingTime="29.00" waitingCount="1" stopTime="0.00" timeLoss="37.40" rerouteNo="0" devices="tripinfo_48" vType="DEFAULT_VEHTYPE" speedFactor="0.83" vaporized=""/>
    <tripinfo id="13" depart="5.00" departLane="13_3way_18to4way_19_0" departPos="5.10" departSpeed="0.00" departDelay="0.67" arrival="79.00" arrivalLane="37_4way_13to4way_7_0" arrivalPos="85.60" arrivalSpeed="13.05" duration="74.00" routeLength="275.13" waitingTime="41.00" waitingCount="1" stopTime="0.00" timeLoss="52.01" rerouteNo="0" devices="tripinfo_13" vType="DEFAULT_VEHTYPE" speedFactor="0.98" vaporized=""/>
    <tripinfo id="29" depart="10.00" departLane="24_3way_31to3way_32_0" departPos="5.10" departSpeed="0.00" departDelay="0.33" arrival="79.00" arrivalLane="16_3way_29to3way_23_0" arrivalPos="85.60" arrivalSpeed="9.14" duration="69.00" routeLength="577.30" waitingTime="11.00" waitingCount="1" stopTime="0.00" timeLoss="25.17" rerouteNo="0" devices="tripinfo_29" vType="DEFAULT_VEHTYPE" speedFactor="0.95" vaporized=""/>
    <tripinfo id="104" depart="35.00" departLane="47_4way_21to4way_20_0" departPos="5.10" departSpeed="0.00" departDelay="0.34" arrival="79.00" arrivalLane="45_4way_20to4way_19_0" arrivalPos="85.60" arrivalSpeed="12.87" duration="44.00" routeLength="180.50" waitingTime="21.00" waitingCount="1" stopTime="0.00" timeLoss="30.24" rerouteNo="0" devices="tripinfo_104" vType="DEFAULT_VEHTYPE" speedFactor="0.95" vaporized=""/>
    <tripinfo id="144" depart="54.00" departLane="51_4way_22to4way_28_0" departPos="5.10" departSpeed="0.00" departDelay="6.00" arrival="79.00" arrivalLane="51_4way_22to4way_28_0" arrivalPos="85.60" arrivalSpeed="7.81" duration="25.00" routeLength="80.50" waitingTime="7.00" waitingCount="1" stopTime="0.00" timeLoss="19.27" rerouteNo="0" devices="tripinfo_144" vType="DEFAULT_VEHTYPE" speedFactor="1.07" vaporized=""/>
    <tripinfo id="180" depart="60.00" departLane="10_3way_17to3way_23_0" departPos="5.10" departSpeed="0.00" departDelay="0.01" arrival="79.00" arrivalLane="16_3way_23to3way_29_0" arrivalPos="85.60" arrivalSpeed="13.54" duration="19.00" routeLength="180.50" waitingTime="0.00" waitingCount="0" stopTime="0.00" timeLoss="6.54" rerouteNo="0" devices="tripinfo_180" vType="DEFAULT_VEHTYPE" speedFactor="1.04" vaporized=""/>
    <tripinfo id="185" depart="62.00" departLane="41_4way_16to4way_15_0" departPos="5.10" departSpeed="0.00" departDelay="0.34" arrival="80.00" arrivalLane="42_4way_15to4way_21_0" arrivalPos="85.60" arrivalSpeed="15.78" duration="18.00" routeLength="175.13" waitingTime="0.00" waitingCount="0" stopTime="0.00" timeLoss="6.76" rerouteNo="0" devices="tripinfo_185" vType="DEFAULT_VEHTYPE" speedFactor="1.18" vaporized=""/>
    <tripinfo id="61" depart="21.00" departLane="12_3way_18to3way_24_0" departPos="5.10" departSpeed="0.00" departDelay="0.67" arrival="81.00" arrivalLane="19_3way_24to4way_25_0" arrivalPos="85.60" arrivalSpeed="13.63" duration="60.00" routeLength="175.13" waitingTime="35.00" waitingCount="1" stopTime="0.00" timeLoss="46.94" rerouteNo="0" devices="tripinfo_61" vType="DEFAULT_VEHTYPE" speedFactor="1.01" vaporized=""/>
    <tripinfo id="63" depart="22.00" departLane="55_4way_8to4way_7_0" departPos="5.10" departSpeed="0.00" departDelay="1.00" arrival="81.00" arrivalLane="36_4way_13to4way_19_0" arrivalPos="85.60" arrivalSpeed="12.53" duration="59.00" routeLength="275.13" waitingTime="24.00" waitingCount="1" stopTime="0.00" timeLoss="37.61" rerouteNo="0" devices="tripinfo_63" vType="DEFAULT_VEHTYPE" speedFactor="0.95" vaporized=""/>
    <tripinfo id="161" depart="55.00" departLane="24_3way_31to3way_32_0" departPos="5.10" departSpeed="0.00" departDelay="1.34" arrival="81.00" arrivalLane="28_3way_33to3way_34_0" arrivalPos="85.60" arrivalSpeed="12.98" duration="26.00" routeLength="280.50" waitingTime="0.00" waitingCount="0" stopTime="0.00" timeLoss="3.82" rerouteNo="0" devices="tripinfo_161" vType="DEFAULT_VEHTYPE" speedFactor="0.95" vaporized=""/>
    <tripinfo id="28" depart="10.00" departLane="6_3way_11to4way_10_0" departPos="5.10" departSpeed="0.00" departDelay="0.67" arrival="82.00" arrivalLane="40_4way_8to4way_14_0" arrivalPos="85.60" arrivalSpeed="13.00" duration="72.00" routeLength="375.13" waitingTime="33.00" waitingCount="1" stopTime="0.00" timeLoss="44.38" rerouteNo="0" devices="tripinfo_28" vType="DEFAULT_VEHTYPE" speedFactor="1.03" vaporized=""/>
    <tripinfo id="199" depart="67.00" departLane="20_3way_34to3way_29_0" departPos="5.10" departSpeed="0.00" departDelay="0.67" arrival="82.00" arrivalLane="20_3way_34to3way_29_0" arrivalPos="182.40" arrivalSpeed="16.33" duration="15.00" routeLength="177.30" waitingTime="0.00" waitingCount="0" stopTime="0.00" timeLoss="4.02" rerouteNo="0" devices="tripinfo_199" vType="DEFAULT_VEHTYPE" speedFactor="1.20" vaporized=""/>
    <tripinfo id="43" depart="19.00" departLane="47_4way_20to4way_21_0" departPos="5.10" departSpeed="0.00" departDelay="4.67" arrival="83.00" arrivalLane="4_3way_17to3way_11_0" arrivalPos="85.60" arrivalSpeed="12.94" duration="64.00" routeLength="475.13" waitingTime="16.00" waitingCount="1" stopTime="0.00" timeLoss="27.61" rerouteNo="0" devices="tripinfo_43" vType="DEFAULT_VEHTYPE" speedFactor="0.97" vaporized=""/>
    <tripinfo id="110" depart="37.00" departLane="17_3way_23to4way_22_0" departPos="5.10" departSpeed="0.00" departDelay="0.34" arrival="83.00" arrivalLane="30_4way_28to3way_34_0" arrivalPos="85.60" arrivalSpeed="13.77" duration="46.00" routeLength="275.13" waitingTime="10.00" waitingCount="1" stopTime="0.00" timeLoss="26.52" rerouteNo="0" devices="tripinfo_110" vType="DEFAULT_VEHTYPE" speedFactor="1.05" vaporized=""/>
    <tripinfo id="122" depart="41.00" departLane="23_3way_3to4way_9_0" departPos="5.10" departSpeed="0.00" departDelay="0.34" arrival="83.00" arrivalLane="34_4way_9to4way_10_0" arrivalPos="85.60" arrivalSpeed="15.66" duration="42.00" routeLength="175.13" waitingTime="16.00" waitingCount="2" stopTime="0.00" timeLoss="30.60" rerouteNo="0" devices="tripinfo_122" vType="DEFAULT_VEHTYPE" speedFactor="1.20" vaporized=""/>
    <tripinfo id="130" depart="44.00" departLane="33_4way_10to4way_16_0" departPos="5.10" departSpeed="0.00" departDelay="0.67" arrival="83.00" arrivalLane="51_4way_22to4way_28_0" arrivalPos="85.60" arrivalSpeed="10.61" duration="39.00" routeLength="280.50" waitingTime="5.00" waitingCount="1" stopTime="0.00" timeLoss="17.80" rerouteNo="0" devices="tripinfo_130" vType="DEFAULT_VEHTYPE" speedFactor="0.98" vaporized=""/>
    <tripinfo id="45" depart="15.00" departLane="3_3way_1to4way_7_0" departPos="5.10" departSpeed="0.00" departDelay="0.00" arrival="84.00" arrivalLane="36_4way_13to4way_19_0" arrivalPos="85.60" arrivalSpeed="12.92" duration="69.00" routeLength="280.50" waitingTime="41.00" waitingCount="1" stopTime="0.00" timeLoss="48.71" rerouteNo="0" devices="tripinfo_45" vType="DEFAULT_VEHTYPE" speedFactor="1.00" vaporized=""/>
    <tripinfo id="5" depart="2.00" departLane="37_4way_7to4way_13_0" departPos="5.10" departSpeed="0.00" departDelay="0.33" arrival="85.00" arrivalLane="38_4way_14to4way_15_0" arrivalPos="85.60" arrivalSpeed="12.35" duration="83.00" routeLength="275.13" waitingTime="53.00" waitingCount="1" stopTime="0.00" timeLoss="61.04" rerouteNo="0" devices="tripinfo_5" vType="DEFAULT_VEHTYPE" speedFactor="0.94" vaporized=""/>
    <tripinfo id="18" depart="6.00" departLane="12_3way_18to3way_24_0" departPos="5.10" departSpeed="0.00" departDelay="0.00" arrival="85.00" arrivalLane="18_3way_24to3way_31_0" arrivalPos="182.40" arrivalSpeed="12.08" duration="79.00" routeLength="277.30" waitingTime="49.00" waitingCount="1" stopTime="0.00" timeLoss="58.03" rerouteNo="0" devices="tripinfo_18" vType="DEFAULT_VEHTYPE" speedFactor="0.96" vaporized=""/>
    <tripinfo id="89" depart="30.00" departLane="29_3way_33to4way_27_0" departPos="5.10" departSpeed="0.00" departDelay="0.34" arrival="85.00" arrivalLane="53_4way_27to4way_26_0" arrivalPos="85.60" arrivalSpeed="12.13" duration="55.00" routeLength="175.13" waitingTime="29.00" waitingCount="1" stopTime="0.00" timeLoss="40.00" rerouteNo="0" devices="tripinfo_89" vType="DEFAULT_VEHTYPE" speedFactor="0.93" vaporized=""/>
    <tripinfo id="133" depart="45.00" departLane="42_4way_15to4way_21_0" departPos="5.10" departSpeed="0.00" departDelay="0.67" arrival="85.00" arrivalLane="49_4way_21to4way_22_0" arrivalPos="85.60" arrivalSpeed="13.54" duration="40.00" routeLength="175.13" waitingTime="15.00" waitingCount="1" stopTime="0.00" timeLoss="25.56" rerouteNo="0" devices="tripinfo_133" vType="DEFAULT_VEHTYPE" speedFactor="1.01" vaporized=""/>
    <tripinfo id="158" depart="53.00" departLane="18_3way_24to3way_31_0" departPos="5.10" departSpeed="0.00" departDelay="0.34" arrival="86.00" arrivalLane="26_3way_32to3way_33_0" arrivalPos="85.60" arrivalSpeed="12.13" duration="33.00" routeLength="377.30" waitingTime="0.00" waitingCount="0" stopTime="0.00" timeLoss="4.70" rerouteNo="0" devices="tripinfo_158" vType="DEFAULT_VEHTYPE" speedFactor="0.96" vaporized=""/>
    <tripinfo id="9" depart="3.00" departLane="42_4way_15to4way_21_0" departPos="5.10" departSpeed="0.00" departDelay="0.00" arrival="87.00" arrivalLane="54_4way_27to4way_28_0" arrivalPos="85.60" arrivalSpeed="11.79" duration="84.00" routeLength="275.13" waitingTime="50.00" waitingCount="1" stopTime="0.00" timeLoss="61.44" rerouteNo="0" devices="tripinfo_9" vType="DEFAULT_VEHTYPE" speedFactor="0.91" vaporized=""/>