<?xml version="1.0" encoding="UTF-8"?>

<!-- generated on 2023-07-18 11:51:41 by Eclipse SUMO sumo Version 1.12.0
<configuration xmlns:xsi="http://www.w3.org/2001/XMLSchema-instance" xsi:noNamespaceSchemaLocation="http://sumo.dlr.de/xsd/sumoConfiguration.xsd">

    <input>
        <net-file value="../../data_generation/sq.net.xml"/>
        <route-files value="../../data_generation/sq.rou.xml"/>
    </input>

    <output>
        <tripinfo-output value="tripinfo.xml"/>
        <statistic-output value="statistic.xml"/>
    </output>

    <time>
        <begin value="0"/>
        <end value="3600"/>
    </time>

    <processing>
        <time-to-teleport value="-1"/>
    </processing>

    <traci_server>
        <remote-port value="47343"/>
    </traci_server>

    <random_number>
        <seed value="1395"/>
    </random_number>

    <gui_only>
        <gui-settings-file value="../../data_generation/view_HY_0402.xml"/>
    </gui_only>

</configuration>
-->

<tripinfos xmlns:xsi="http://www.w3.org/2001/XMLSchema-instance" xsi:noNamespaceSchemaLocation="http://sumo.dlr.de/xsd/tripinfo_file.xsd">
    <tripinfo id="198" depart="24.00" departLane="689_4way_381to4way_356_0" departPos="5.10" departSpeed="0.00" departDelay="0.24" arrival="34.00" arrivalLane="689_4way_381to4way_356_0" arrivalPos="85.60" arrivalSpeed="11.71" duration="10.00" routeLength="80.50" waitingTime="0.00" waitingCount="0" stopTime="0.00" timeLoss="2.74" rerouteNo="0" devices="tripinfo_198" vType="DEFAULT_VEHTYPE" speedFactor="0.87" vaporized=""/>
    <tripinfo id="213" depart="26.00" departLane="97_3way_474to3way_449_0" departPos="5.10" departSpeed="0.00" departDelay="0.44" arrival="47.00" arrivalLane="98_3way_449to4way_448_0" arrivalPos="85.60" arrivalSpeed="11.56" duration="21.00" routeLength="175.13" waitingTime="0.00" waitingCount="0" stopTime="0.00" timeLoss="5.67" rerouteNo="0" devices="tripinfo_213" vType="DEFAULT_VEHTYPE" speedFactor="0.91" vaporized=""/>
    <tripinfo id="326" depart="40.00" departLane="627_4way_326to4way_327_0" departPos="5.10" departSpeed="0.00" departDelay="0.88" arrival="58.00" arrivalLane="629_4way_327to4way_328_0" arrivalPos="85.60" arrivalSpeed="13.18" duration="18.00" routeLength="180.50" waitingTime="0.00" waitingCount="0" stopTime="0.00" timeLoss="4.28" rerouteNo="0" devices="tripinfo_326" vType="DEFAULT_VEHTYPE" speedFactor="1.00" vaporized=""/>
    <tripinfo id="335" depart="41.00" departLane="790_4way_408to4way_407_0" departPos="5.10" departSpeed="0.00" departDelay="0.80" arrival="70.00" arrivalLane="842_4way_432to4way_457_0" arrivalPos="85.60" arrivalSpeed="8.62" duration="29.00" routeLength="275.13" waitingTime="0.00" waitingCount="0" stopTime="0.00" timeLoss="6.46" rerouteNo="0" devices="tripinfo_335" vType="DEFAULT_VEHTYPE" speedFactor="0.90" vaporized=""/>
    <tripinfo id="22" depart="3.00" departLane="1159_4way_90to4way_65_0" departPos="5.10" departSpeed="0.00" departDelay="0.36" arrival="77.00" arrivalLane="777_4way_65to4way_40_0" arrivalPos="85.60" arrivalSpeed="13.91" duration="74.00" routeLength="180.50" waitingTime="52.00" waitingCount="1" stopTime="0.00" timeLoss="60.80" rerouteNo="0" devices="tripinfo_22" vType="DEFAULT_VEHTYPE" speedFactor="1.00" vaporized=""/>
    <tripinfo id="479" depart="58.00" departLane="876_4way_46to4way_45_0" departPos="5.10" departSpeed="0.00" departDelay="0.52" arrival="77.00" arrivalLane="877_4way_45to4way_70_0" arrivalPos="85.60" arrivalSpeed="14.17" duration="19.00" routeLength="175.13" waitingTime="0.00" waitingCount="0" stopTime="0.00" timeLoss="5.41" rerouteNo="0" devices="tripinfo_479" vType="DEFAULT_VEHTYPE" speedFactor="1.04" vaporized=""/>
    <tripinfo id="351" depart="43.00" departLane="163_3way_617to3way_618_0" departPos="5.10" departSpeed="0.00" departDelay="0.88" arrival="78.00" arrivalLane="165_3way_618to3way_619_0" arrivalPos="85.60" arrivalSpeed="11.63" duration="35.00" routeLength="180.50" waitingTime="12.00" waitingCount="1" stopTime="0.00" timeLoss="19.15" rerouteNo="0" devices="tripinfo_351" vType="DEFAULT_VEHTYPE" speedFactor="0.85" vaporized=""/>
    <tripinfo id="18" depart="3.00" departLane="754_4way_413to4way_388_0" departPos="5.10" departSpeed="0.00" departDelay="0.84" arrival="79.00" arrivalLane="654_4way_363to4way_338_0" arrivalPos="85.60" arrivalSpeed="12.49" duration="76.00" routeLength="280.50" waitingTime="45.00" waitingCount="1" stopTime="0.00" timeLoss="54.55" rerouteNo="0" devices="tripinfo_18" vType="DEFAULT_VEHTYPE" speedFactor="0.96" vaporized=""/>
    <tripinfo id="576" depart="70.00" departLane="302_4way_154to4way_153_0" departPos="5.10" departSpeed="0.00" departDelay="0.88" arrival="79.00" arrivalLane="302_4way_154to4way_153_0" arrivalPos="85.60" arrivalSpeed="13.24" duration="9.00" routeLength="80.50" waitingTime="0.00" waitingCount="0" stopTime="0.00" timeLoss="3.07" rerouteNo="0" devices="tripinfo_576" vType="DEFAULT_VEHTYPE" speedFactor="1.00" vaporized=""/>
    <tripinfo id="610" depart="74.00" departLane="626_4way_323to4way_348_0" departPos="5.10" departSpeed="0.00" departDelay="0.80" arrival="84.00" arrivalLane="626_4way_323to4way_348_0" arrivalPos="85.60" arrivalSpeed="11.87" duration="10.00" routeLength="80.50" waitingTime="0.00" waitingCount="0" stopTime="0.00" timeLoss="3.28" rerouteNo="0" devices="tripinfo_610" vType="DEFAULT_VEHTYPE" speedFactor="0.93" vaporized=""/>
    <tripinfo id="381" depart="46.00" departLane="1091_4way_56to4way_57_0" departPos="5.10" departSpeed="0.00" departDelay="0.28" arrival="85.00" arrivalLane="658_4way_59to4way_34_0" arrivalPos="85.60" arrivalSpeed="16.81" duration="39.00" routeLength="375.13" waitingTime="4.00" waitingCount="1" stopTime="0.00" timeLoss="16.73" rerouteNo="0" devices="tripinfo_381" vType="DEFAULT_VEHTYPE" speedFactor="1.27" vaporized=""/>
    <tripinfo id="115" depart="14.00" departLane="881_4way_452to4way_477_0" departPos="5.10" departSpeed="0.00" departDelay="0.20" arrival="88.00" arrivalLane="975_4way_502to4way_503_0" arrivalPos="85.60" arrivalSpeed="12.18" duration="74.00" routeLength="275.13" waitingTime="41.00" waitingCount="1" stopTime="0.00" timeLoss="51.62" rerouteNo="0" devices="tripinfo_115" vType="DEFAULT_VEHTYPE" speedFactor="0.92" vaporized=""/>
    <tripinfo id="637" depart="77.00" departLane="286_4way_142to4way_167_0" departPos="5.10" departSpeed="0.00" departDelay="0.56" arrival="97.00" arrivalLane="330_4way_167to4way_168_0" arrivalPos="85.60" arrivalSpeed="12.34" duration="20.00" routeLength="175.13" waitingTime="0.00" waitingCount="0" stopTime="0.00" timeLoss="5.06" rerouteNo="0" devices="tripinfo_637" vType="DEFAULT_VEHTYPE" speedFactor="0.94" vaporized=""/>
    <tripinfo id="229" depart="28.00" departLane="921_4way_495to4way_470_0" departPos="5.10" departSpeed="0.00" departDelay="0.52" arrival="99.00" arrivalLane="861_4way_442to4way_441_0" arrivalPos="85.60" arrivalSpeed="9.44" duration="71.00" routeLength="575.13" waitingTime="4.00" waitingCount="1" stopTime="0.00" timeLoss="14.60" rerouteNo="0" devices="tripinfo_229" vType="DEFAULT_VEHTYPE" speedFactor="0.75" vaporized=""/>
    <tripinfo id="117" depart="15.00" departLane="541_4way_283to4way_282_0" departPos="5.10" departSpeed="0.00" departDelay="0.96" arrival="105.00" arrivalLane="630_4way_327to4way_352_0" arrivalPos="85.60" arrivalSpeed="11.80" duration="90.00" routeLength="875.13" waitingTime="7.00" waitingCount="1" stopTime="0.00" timeLoss="19.51" rerouteNo="0" devices="tripinfo_117" vType="DEFAULT_VEHTYPE" speedFactor="0.91" vaporized=""/>
    <tripinfo id="267" depart="33.00" departLane="113_3way_525to3way_500_0" departPos="5.10" departSpeed="0.00" departDelay="0.96" arrival="112.00" arrivalLane="778_4way_401to4way_402_0" arrivalPos="85.60" arrivalSpeed="14.26" duration="79.00" routeLength="680.30" waitingTime="22.00" waitingCount="1" stopTime="0.00" timeLoss="34.41" rerouteNo="0" devices="tripinfo_267" vType="DEFAULT_VEHTYPE" speedFactor="1.11" vaporized=""/>
    <tripinfo id="41" depart="5.00" departLane="859_4way_440to4way_441_0" departPos="5.10" departSpeed="0.00" departDelay="0.08" arrival="116.00" arrivalLane="98_4way_448to3way_449_0" arrivalPos="85.60" arrivalSpeed="15.20" duration="111.00" routeLength="880.50" waitingTime="42.00" waitingCount="1" stopTime="0.00" timeLoss="54.50" rerouteNo="0" devices="tripinfo_41" vType="DEFAULT_VEHTYPE" speedFactor="1.12" vaporized=""/>
    <tripinfo id="771" depart="93.00" departLane="298_4way_152to4way_151_0" departPos="5.10" departSpeed="0.00" departDelay="0.48" arrival="120.00" arrivalLane="27_3way_150to3way_175_0" arrivalPos="85.60" arrivalSpeed="13.59" duration="27.00" routeLength="275.13" waitingTime="0.00" waitingCount="0" stopTime="0.00" timeLoss="6.03" rerouteNo="0" devices="tripinfo_771" vType="DEFAULT_VEHTYPE" speedFactor="1.01" vaporized=""/>
    <tripinfo id="841" depart="101.00" departLane="45_3way_21to3way_20_0" departPos="5.10" departSpeed="0.00" departDelay="0.08" arrival="121.00" arrivalLane="46_3way_20to4way_45_0" arrivalPos="85.60" arrivalSpeed="14.00" duration="20.00" routeLength="175.13" waitingTime="0.00" waitingCount="0" stopTime="0.00" timeLoss="6.19" rerouteNo="0" devices="tripinfo_841" vType="DEFAULT_VEHTYPE" speedFactor="1.02" vaporized=""/>
    <tripinfo id="906" depart="109.00" departLane="1020_4way_547to4way_522_0" departPos="5.10" departSpeed="0.00" departDelay="0.28" arrival="126.00" arrivalLane="971_4way_522to4way_497_0" arrivalPos="85.60" arrivalSpeed="12.67" duration="17.00" routeLength="180.50" waitingTime="0.00" waitingCount="0" stopTime="0.00" timeLoss="3.08" rerouteNo="0" devices="tripinfo_906" vType="DEFAULT_VEHTYPE" speedFactor="0.95" vaporized=""/>
    <tripinfo id="1024" depart="123.00" departLane="54_3way_224to4way_223_0" departPos="5.10" departSpeed="0.00" departDelay="0.12" arrival="133.00" arrivalLane="54_3way_224to4way_223_0" arrivalPos="85.60" arrivalSpeed="11.83" duration="10.00" routeLength="80.50" waitingTime="0.00" waitingCount="0" stopTime="0.00" timeLoss="2.84" rerouteNo="0" devices="tripinfo_1024" vType="DEFAULT_VEHTYPE" speedFactor="0.89" vaporized=""/>
    <tripinfo id="468" depart="60.00" departLane="991_4way_51to4way_52_0" departPos="5.10" departSpeed="0.00" departDelay="3.84" arrival="135.00" arrivalLane="1052_4way_54to4way_55_0" arrivalPos="85.60" arrivalSpeed="10.08" duration="75.00" routeLength="380.50" waitingTime="33.00" waitingCount="1" stopTime="0.00" timeLoss="43.78" rerouteNo="0" devices="tripinfo_468" vType="DEFAULT_VEHTYPE" speedFactor="0.90" vaporized=""/>
    <tripinfo id="207" depart="25.00" departLane="975_4way_503to4way_502_0" departPos="5.10" departSpeed="0.00" departDelay="0.16" arrival="136.00" arrivalLane="1076_4way_552to4way_577_0" arrivalPos="85.60" arrivalSpeed="16.00" duration="111.00" routeLength="375.13" waitingTime="67.00" waitingCount="2" stopTime="0.00" timeLoss="88.23" rerouteNo="0" devices="tripinfo_207" vType="DEFAULT_VEHTYPE" speedFactor="1.24" vaporized=""/>
    <tripinfo id="114" depart="17.00" departLane="861_4way_441to4way_442_0" departPos="5.10" departSpeed="0.00" departDelay="3.32" arrival="137.00" arrivalLane="725_4way_397to4way_372_0" arrivalPos="85.60" arrivalSpeed="13.56" duration="120.00" routeLength="875.13" waitingTime="41.00" waitingCount="2" stopTime="0.00" timeLoss="59.41" rerouteNo="0" devices="tripinfo_114" vType="DEFAULT_VEHTYPE" speedFactor="1.06" vaporized=""/>
    <tripinfo id="128" depart="16.00" departLane="900_4way_462to4way_461_0" departPos="5.10" departSpeed="0.00" departDelay="0.64" arrival="137.00" arrivalLane="996_4way_511to4way_536_0" arrivalPos="85.60" arrivalSpeed="12.99" duration="121.00" routeLength="375.13" waitingTime="78.00" waitingCount="2" stopTime="0.00" timeLoss="94.10" rerouteNo="0" devices="tripinfo_128" vType="DEFAULT_VEHTYPE" speedFactor="1.02" vaporized=""/>
    <tripinfo id="178" depart="22.00" departLane="74_3way_300to4way_301_0" departPos="5.10" departSpeed="0.00" departDelay="0.64" arrival="137.00" arrivalLane="582_4way_303to4way_304_0" arrivalPos="85.60" arrivalSpeed="14.07" duration="115.00" routeLength="380.50" waitingTime="79.00" waitingCount="1" stopTime="0.00" timeLoss="89.14" rerouteNo="0" devices="tripinfo_178" vType="DEFAULT_VEHTYPE" speedFactor="1.07" vaporized=""/>
    <tripinfo id="631" depart="76.00" departLane="552_4way_312to4way_287_0" departPos="5.10" departSpeed="0.00" departDelay="0.28" arrival="137.00" arrivalLane="494_4way_260to4way_259_0" arrivalPos="85.60" arrivalSpeed="13.98" duration="61.00" routeLength="475.13" waitingTime="14.00" waitingCount="1" stopTime="0.00" timeLoss="28.03" rerouteNo="0" devices="tripinfo_631" vType="DEFAULT_VEHTYPE" speedFactor="1.08" vaporized=""/>
    <tripinfo id="332" depart="40.00" departLane="941_4way_482to4way_507_0" departPos="5.10" departSpeed="0.00" departDelay="0.16" arrival="138.00" arrivalLane="986_4way_507to4way_532_0" arrivalPos="85.60" arrivalSpeed="11.49" duration="98.00" routeLength="180.50" waitingTime="75.00" waitingCount="1" stopTime="0.00" timeLoss="82.18" rerouteNo="0" devices="tripinfo_332" vType="DEFAULT_VEHTYPE" speedFactor="0.83" vaporized=""/>
    <tripinfo id="443" depart="54.00" departLane="1005_4way_516to4way_517_0" departPos="5.10" departSpeed="0.00" departDelay="0.84" arrival="140.00" arrivalLane="961_4way_517to4way_492_0" arrivalPos="85.60" arrivalSpeed="11.37" duration="86.00" routeLength="175.13" waitingTime="62.00" waitingCount="1" stopTime="0.00" timeLoss="71.01" rerouteNo="0" devices="tripinfo_443" vType="DEFAULT_VEHTYPE" speedFactor="0.88" vaporized=""/>
    <tripinfo id="81" depart="10.00" departLane="516_4way_270to4way_269_0" departPos="5.10" departSpeed="0.00" departDelay="0.28" arrival="143.00" arrivalLane="562_4way_291to4way_316_0" arrivalPos="85.60" arrivalSpeed="13.44" duration="133.00" routeLength="575.13" waitingTime="78.00" waitingCount="2" stopTime="0.00" timeLoss="92.55" rerouteNo="0" devices="tripinfo_81" vType="DEFAULT_VEHTYPE" speedFactor="1.05" vaporized=""/>
    <tripinfo id="334" depart="41.00" departLane="325_4way_164to4way_189_0" departPos="5.10" departSpeed="0.00" departDelay="0.92" arrival="143.00" arrivalLane="371_4way_190to4way_191_0" arrivalPos="85.60" arrivalSpeed="15.92" duration="102.00" routeLength="275.13" waitingTime="74.00" waitingCount="1" stopTime="0.00" timeLoss="84.25" rerouteNo="0" devices="tripinfo_334" vType="DEFAULT_VEHTYPE" speedFactor="1.19" vaporized=""/>
    <tripinfo id="568" depart="69.00" departLane="810_4way_416to4way_417_0" departPos="5.10" departSpeed="0.00" departDelay="0.84" arrival="148.00" arrivalLane="725_4way_397to4way_372_0" arrivalPos="85.60" arrivalSpeed="15.90" duration="79.00" routeLength="775.13" waitingTime="16.00" waitingCount="1" stopTime="0.00" timeLoss="28.94" rerouteNo="0" devices="tripinfo_568" vType="DEFAULT_VEHTYPE" speedFactor="1.15" vaporized=""/>
    <tripinfo id="1066" depart="128.00" departLane="118_3way_525to4way_526_0" departPos="5.10" departSpeed="0.00" departDelay="0.08" arrival="154.00" arrivalLane="976_4way_527to4way_502_0" arrivalPos="85.60" arrivalSpeed="13.66" duration="26.00" routeLength="275.13" waitingTime="0.00" waitingCount="0" stopTime="0.00" timeLoss="5.71" rerouteNo="0" devices="tripinfo_1066" vType="DEFAULT_VEHTYPE" speedFactor="1.03" vaporized=""/>
    <tripinfo id="38" depart="5.00" departLane="100_3way_450to4way_451_0" departPos="5.10" departSpeed="0.00" departDelay="0.44" arrival="155.00" arrivalLane="734_4way_404to4way_379_0" arrivalPos="85.60" arrivalSpeed="13.32" duration="150.00" routeLength="675.13" waitingTime="82.00" waitingCount="2" stopTime="0.00" timeLoss="99.61" rerouteNo="0" devices="tripinfo_38" vType="DEFAULT_VEHTYPE" speedFactor="1.00" vaporized=""/>
    <tripinfo id="156" depart="19.00" departLane="157_3way_614to3way_615_0" departPos="5.10" departSpeed="0.00" departDelay="0.28" arrival="156.00" arrivalLane="167_3way_619to3way_620_0" arrivalPos="85.60" arrivalSpeed="12.49" duration="137.00" routeLength="580.50" waitingTime="80.00" waitingCount="1" stopTime="0.00" timeLoss="91.12" rerouteNo="0" devices="tripinfo_156" vType="DEFAULT_VEHTYPE" speedFactor="0.91" vaporized=""/>
    <tripinfo id="1258" depart="151.00" departLane="785_4way_429to4way_404_0" departPos="5.10" departSpeed="0.00" departDelay="0.04" arrival="161.00" arrivalLane="785_4way_429to4way_404_0" arrivalPos="85.60" arrivalSpeed="12.65" duration="10.00" routeLength="80.50" waitingTime="0.00" waitingCount="0" stopTime="0.00" timeLoss="3.29" rerouteNo="0" devices="tripinfo_1258" vType="DEFAULT_VEHTYPE" speedFactor="0.94" vaporized=""/>
    <tripinfo id="408" depart="49.00" departLane="1034_4way_532to4way_531_0" departPos="5.10" departSpeed="0.00" departDelay="0.04" arrival="164.00" arrivalLane="1023_4way_526to4way_551_0" arrivalPos="85.60" arrivalSpeed="12.47" duration="115.00" routeLength="675.13" waitingTime="46.00" waitingCount="2" stopTime="0.00" timeLoss="60.95" rerouteNo="0" devices="tripinfo_408" vType="DEFAULT_VEHTYPE" speedFactor="0.92" vaporized=""/>
    <tripinfo id="24" depart="3.00" departLane="889_4way_481to4way_456_0" departPos="5.10" departSpeed="0.00" departDelay="0.12" arrival="166.00" arrivalLane="586_4way_306to4way_305_0" arrivalPos="85.60" arrivalSpeed="12.81" duration="163.00" routeLength="775.13" waitingTime="88.00" waitingCount="1" stopTime="0.00" timeLoss="104.54" rerouteNo="0" devices="tripinfo_24" vType="DEFAULT_VEHTYPE" speedFactor="0.97" vaporized=""/>
    <tripinfo id="1340" depart="161.00" departLane="934_4way_504to4way_479_0" departPos="5.10" departSpeed="0.00" departDelay="0.20" arrival="170.00" arrivalLane="934_4way_504to4way_479_0" arrivalPos="85.60" arrivalSpeed="12.51" duration="9.00" routeLength="80.50" waitingTime="0.00" waitingCount="0" stopTime="0.00" timeLoss="2.70" rerouteNo="0" devices="tripinfo_1340" vType="DEFAULT_VEHTYPE" speedFactor="0.95" vaporized=""/>
    <tripinfo id="700" depart="84.00" departLane="939_4way_506to4way_481_0" departPos="5.10" departSpeed="0.00" departDelay="0.00" arrival="186.00" arrivalLane="537_4way_281to4way_280_0" arrivalPos="85.60" arrivalSpeed="13.57" duration="102.00" routeLength="975.13" waitingTime="10.00" waitingCount="1" stopTime="0.00" timeLoss="34.28" rerouteNo="0" devices="tripinfo_700" vType="DEFAULT_VEHTYPE" speedFactor="1.05" vaporized=""/>
    <tripinfo id="1286" depart="156.00" departLane="170_3way_620to4way_595_0" departPos="5.10" departSpeed="0.00" departDelay="1.68" arrival="188.00" arrivalLane="1016_4way_545to4way_520_0" arrivalPos="85.60" arrivalSpeed="13.49" duration="32.00" routeLength="380.50" waitingTime="0.00" waitingCount="0" stopTime="0.00" timeLoss="4.53" rerouteNo="0" devices="tripinfo_1286" vType="DEFAULT_VEHTYPE" speedFactor="1.01" vaporized=""/>
    <tripinfo id="16" depart="2.00" departLane="408_4way_212to4way_211_0" departPos="5.10" departSpeed="0.00" departDelay="0.08" arrival="190.00" arrivalLane="404_4way_210to4way_209_0" arrivalPos="85.60" arrivalSpeed="6.39" duration="188.00" routeLength="280.50" waitingTime="153.00" waitingCount="2" stopTime="0.00" timeLoss="165.20" rerouteNo="0" devices="tripinfo_16" vType="DEFAULT_VEHTYPE" speedFactor="0.90" vaporized=""/>
    <tripinfo id="212" depart="26.00" departLane="316_4way_160to4way_161_0" departPos="5.10" departSpeed="0.00" departDelay="0.56" arrival="190.00" arrivalLane="322_4way_163to4way_164_0" arrivalPos="85.60" arrivalSpeed="5.14" duration="164.00" routeLength="380.50" waitingTime="122.00" waitingCount="2" stopTime="0.00" timeLoss="136.63" rerouteNo="0" devices="tripinfo_212" vType="DEFAULT_VEHTYPE" speedFactor="1.00" vaporized=""/>
    <tripinfo id="692" depart="84.00" departLane="650_4way_361to4way_336_0" departPos="5.10" departSpeed="0.00" departDelay="0.96" arrival="190.00" arrivalLane="647_4way_336to4way_335_0" arrivalPos="85.60" arrivalSpeed="5.33" duration="106.00" routeLength="175.13" waitingTime="79.00" waitingCount="2" stopTime="0.00" timeLoss="94.07" rerouteNo="0" devices="tripinfo_692" vType="DEFAULT_VEHTYPE" speedFactor="1.13" vaporized=""/>
    <tripinfo id="972" depart="119.00" departLane="109_3way_6to3way_5_0" departPos="5.10" departSpeed="0.00" departDelay="2.36" arrival="190.00" arrivalLane="89_3way_5to3way_4_0" arrivalPos="85.60" arrivalSpeed="5.75" duration="71.00" routeLength="180.50" waitingTime="47.00" waitingCount="1" stopTime="0.00" timeLoss="59.24" rerouteNo="0" devices="tripinfo_972" vType="DEFAULT_VEHTYPE" speedFactor="1.12" vaporized=""/>
    <tripinfo id="262" depart="32.00" departLane="619_4way_57to4way_32_0" departPos="5.10" departSpeed="0.00" departDelay="0.56" arrival="197.00" arrivalLane="109_3way_6to3way_5_0" arrivalPos="85.60" arrivalSpeed="12.65" duration="165.00" routeLength="375.13" waitingTime="120.00" waitingCount="2" stopTime="0.00" timeLoss="135.17" rerouteNo="0" devices="tripinfo_262" vType="DEFAULT_VEHTYPE" speedFactor="0.93" vaporized=""/>
    <tripinfo id="281" depart="34.00" departLane="669_4way_345to4way_346_0" departPos="5.10" departSpeed="0.00" departDelay="0.28" arrival="197.00" arrivalLane="575_4way_323to4way_298_0" arrivalPos="85.60" arrivalSpeed="13.16" duration="163.00" routeLength="475.13" waitingTime="109.00" waitingCount="2" stopTime="0.00" timeLoss="125.60" rerouteNo="0" devices="tripinfo_281" vType="DEFAULT_VEHTYPE" speedFactor="0.95" vaporized=""/>
    <tripinfo id="352" depart="43.00" departLane="144_3way_607to4way_582_0" departPos="5.10" departSpeed="0.00" departDelay="0.76" arrival="197.00" arrivalLane="1123_4way_578to4way_577_0" arrivalPos="85.60" arrivalSpeed="14.13" duration="154.00" routeLength="575.13" waitingTime="95.00" waitingCount="3" stopTime="0.00" timeLoss="115.12" rerouteNo="0" devices="tripinfo_352" vType="DEFAULT_VEHTYPE" speedFactor="1.10" vaporized=""/>
    <tripinfo id="888" depart="107.00" departLane="786_4way_405to4way_406_0" departPos="5.10" departSpeed="0.00" departDelay="0.44" arrival="198.00" arrivalLane="790_4way_407to4way_408_0" arrivalPos="85.60" arrivalSpeed="13.55" duration="91.00" routeLength="280.50" waitingTime="59.00" waitingCount="1" stopTime="0.00" timeLoss="69.58" rerouteNo="0" devices="tripinfo_888" vType="DEFAULT_VEHTYPE" speedFactor="0.99" vaporized=""/>
    <tripinfo id="438" depart="53.00" departLane="740_4way_381to4way_406_0" departPos="5.10" departSpeed="0.00" departDelay="0.44" arrival="200.00" arrivalLane="790_4way_407to4way_408_0" arrivalPos="85.60" arrivalSpeed="12.21" duration="147.00" routeLength="275.13" waitingTime="110.00" waitingCount="2" stopTime="0.00" timeLoss="123.57" rerouteNo="0" devices="tripinfo_438" vType="DEFAULT_VEHTYPE" speedFactor="0.92" vaporized=""/>
    <tripinfo id="726" depart="88.00" departLane="920_4way_471to4way_470_0" departPos="5.10" departSpeed="0.00" departDelay="0.88" arrival="200.00" arrivalLane="921_4way_470to4way_495_0" arrivalPos="85.60" arrivalSpeed="11.23" duration="112.00" routeLength="175.13" waitingTime="89.00" waitingCount="1" stopTime="0.00" timeLoss="96.23" rerouteNo="0" devices="tripinfo_726" vType="DEFAULT_VEHTYPE" speedFactor="0.85" vaporized=""/>
    <tripinfo id="1511" depart="182.00" departLane="823_4way_421to4way_446_0" departPos="5.10" departSpeed="0.00" departDelay="0.68" arrival="200.00" arrivalLane="871_4way_446to4way_447_0" arrivalPos="85.60" arrivalSpeed="13.24" duration="18.00" routeLength="175.13" waitingTime="0.00" waitingCount="0" stopTime="0.00" timeLoss="5.00" rerouteNo="0" devices="tripinfo_1511" vType="DEFAULT_VEHTYPE" speedFactor="1.04" vaporized=""/>
    <tripinfo id="103" depart="13.00" departLane="315_4way_159to4way_184_0" departPos="5.10" departSpeed="0.00" departDelay="0.64" arrival="203.00" arrivalLane="414_4way_214to4way_215_0" arrivalPos="85.60" arrivalSpeed="14.29" duration="190.00" routeLength="775.13" waitingTime="104.00" waitingCount="3" stopTime="0.00" timeLoss="140.53" rerouteNo="0" devices="tripinfo_103" vType="DEFAULT_VEHTYPE" speedFactor="1.15" vaporized=""/>
    <tripinfo id="1113" depart="135.00" departLane="723_4way_371to4way_396_0" departPos="5.10" departSpeed="0.00" departDelay="1.44" arrival="203.00" arrivalLane="822_4way_421to4way_422_0" arrivalPos="85.60" arrivalSpeed="12.58" duration="68.00" routeLength="275.13" waitingTime="35.00" waitingCount="1" stopTime="0.00" timeLoss="46.25" rerouteNo="0" devices="tripinfo_1113" vType="DEFAULT_VEHTYPE" speedFactor="0.98" vaporized=""/>
    <tripinfo id="711" depart="86.00" departLane="587_4way_330to4way_305_0" departPos="5.10" departSpeed="0.00" departDelay="0.68" arrival="204.00" arrivalLane="55_3way_250to3way_225_0" arrivalPos="85.60" arrivalSpeed="13.76" duration="118.00" routeLength="874.92" waitingTime="33.00" waitingCount="2" stopTime="0.00" timeLoss="55.51" rerouteNo="0" devices="tripinfo_711" vType="DEFAULT_VEHTYPE" speedFactor="1.03" vaporized=""/>
    <tripinfo id="1015" depart="122.00" departLane="61_3way_50to3way_25_0" departPos="5.10" departSpeed="0.00" departDelay="0.20" arrival="204.00" arrivalLane="2_3way_25to3way_1_0" arrivalPos="188.80" arrivalSpeed="14.26" duration="82.00" routeLength="283.70" waitingTime="53.00" waitingCount="1" stopTime="0.00" timeLoss="62.36" rerouteNo="0" devices="tripinfo_1015" vType="DEFAULT_VEHTYPE" speedFactor="1.06" vaporized=""/>
    <tripinfo id="493" depart="60.00" departLane="617_4way_319to4way_344_0" departPos="5.10" departSpeed="0.00" departDelay="0.84" arrival="207.00" arrivalLane="716_4way_369to4way_370_0" arrivalPos="85.60" arrivalSpeed="12.27" duration="147.00" routeLength="275.13" waitingTime="115.00" waitingCount="1" stopTime="0.00" timeLoss="125.19" rerouteNo="0" devices="tripinfo_493" vType="DEFAULT_VEHTYPE" speedFactor="0.94" vaporized=""/>
    <tripinfo id="531" depart="64.00" departLane="176_3way_8to3way_7_0" departPos="5.10" departSpeed="0.00" departDelay="0.28" arrival="210.00" arrivalLane="89_3way_5to3way_4_0" arrivalPos="85.60" arrivalSpeed="14.74" duration="146.00" routeLength="380.50" waitingTime="110.00" waitingCount="1" stopTime="0.00" timeLoss="120.53" rerouteNo="0" devices="tripinfo_531" vType="DEFAULT_VEHTYPE" speedFactor="1.11" vaporized=""/>
    <tripinfo id="1678" depart="202.00" departLane="307_4way_155to4way_180_0" departPos="5.10" departSpeed="0.00" departDelay="0.64" arrival="211.00" arrivalLane="307_4way_155to4way_180_0" arrivalPos="85.60" arrivalSpeed="12.41" duration="9.00" routeLength="80.50" waitingTime="0.00" waitingCount="0" stopTime="0.00" timeLoss="3.01" rerouteNo="0" devices="tripinfo_1678" vType="DEFAULT_VEHTYPE" speedFactor="0.97" vaporized=""/>
    <tripinfo id="452" depart="55.00" departLane="923_4way_496to4way_471_0" departPos="5.10" departSpeed="0.00" departDelay="0.76" arrival="212.00" arrivalLane="820_4way_421to4way_420_0" arrivalPos="85.60" arrivalSpeed="14.36" duration="157.00" routeLength="375.13" waitingTime="118.00" waitingCount="1" stopTime="0.00" timeLoss="130.93" rerouteNo="0" devices="tripinfo_452" vType="DEFAULT_VEHTYPE" speedFactor="1.09" vaporized=""/>
    <tripinfo id="605" depart="73.00" departLane="858_4way_44to4way_69_0" departPos="5.10" departSpeed="0.00" departDelay="0.40" arrival="212.00" arrivalLane="184_4way_98to3way_99_0" arrivalPos="85.60" arrivalSpeed="14.36" duration="139.00" routeLength="675.13" waitingTime="71.00" waitingCount="2" stopTime="0.00" timeLoss="91.05" rerouteNo="0" devices="tripinfo_605" vType="DEFAULT_VEHTYPE" speedFactor="1.04" vaporized=""/>
    <tripinfo id="1594" depart="192.00" departLane="582_4way_303to4way_304_0" departPos="5.10" departSpeed="0.00" departDelay="0.72" arrival="213.00" arrivalLane="586_4way_305to4way_306_0" arrivalPos="85.60" arrivalSpeed="17.00" duration="21.00" routeLength="280.50" waitingTime="0.00" waitingCount="0" stopTime="0.00" timeLoss="4.58" rerouteNo="0" devices="tripinfo_1594" vType="DEFAULT_VEHTYPE" speedFactor="1.30" vaporized=""/>
    <tripinfo id="1057" depart="127.00" departLane="241_4way_119to4way_94_0" departPos="5.10" departSpeed="0.00" departDelay="0.16" arrival="214.00" arrivalLane="776_4way_41to4way_40_0" arrivalPos="85.60" arrivalSpeed="12.09" duration="87.00" routeLength="675.13" waitingTime="22.00" waitingCount="1" stopTime="0.00" timeLoss="34.40" rerouteNo="0" devices="tripinfo_1057" vType="DEFAULT_VEHTYPE" speedFactor="0.95" vaporized=""/>
    <tripinfo id="361" depart="44.00" departLane="246_4way_146to4way_121_0" departPos="5.10" departSpeed="0.00" departDelay="0.68" arrival="215.00" arrivalLane="37_3way_19to3way_18_0" arrivalPos="85.60" arrivalSpeed="11.84" duration="171.00" routeLength="775.13" waitingTime="90.00" waitingCount="2" stopTime="0.00" timeLoss="105.88" rerouteNo="0" devices="tripinfo_361" vType="DEFAULT_VEHTYPE" speedFactor="0.87" vaporized=""/>
    <tripinfo id="555" depart="67.00" departLane="541_4way_283to4way_282_0" departPos="5.10" departSpeed="0.00" departDelay="0.40" arrival="217.00" arrivalLane="529_4way_278to4way_277_0" arrivalPos="85.60" arrivalSpeed="14.38" duration="150.00" routeLength="580.50" waitingTime="94.00" waitingCount="2" stopTime="0.00" timeLoss="111.89" rerouteNo="0" devices="tripinfo_555" vType="DEFAULT_VEHTYPE" speedFactor="1.10" vaporized=""/>
    <tripinfo id="1750" depart="210.00" departLane="34_3way_174to4way_173_0" departPos="5.10" departSpeed="0.00" departDelay="0.00" arrival="219.00" arrivalLane="34_3way_174to4way_173_0" arrivalPos="85.60" arrivalSpeed="15.55" duration="9.00" routeLength="80.50" waitingTime="0.00" waitingCount="0" stopTime="0.00" timeLoss="3.57" rerouteNo="0" devices="tripinfo_1750" vType="DEFAULT_VEHTYPE" speedFactor="1.14" vaporized=""/>
    <tripinfo id="737" depart="89.00" departLane="895_4way_484to4way_459_0" departPos="5.10" departSpeed="0.00" departDelay="0.56" arrival="220.00" arrivalLane="786_4way_406to4way_405_0" arrivalPos="85.60" arrivalSpeed="13.17" duration="131.00" routeLength="675.13" waitingTime="65.00" waitingCount="2" stopTime="0.00" timeLoss="80.98" rerouteNo="0" devices="tripinfo_737" vType="DEFAULT_VEHTYPE" speedFactor="0.99" vaporized=""/>