<?xml version="1.0" encoding="UTF-8"?>

<!-- generated on 2023-07-30 03:53:18 by Eclipse SUMO sumo Version 1.12.0
<configuration xmlns:xsi="http://www.w3.org/2001/XMLSchema-instance" xsi:noNamespaceSchemaLocation="http://sumo.dlr.de/xsd/sumoConfiguration.xsd">

    <input>
        <net-file value="../../data_generation/sq.net.xml"/>
        <route-files value="../../data_generation/sq.rou.xml"/>
    </input>

    <output>
        <tripinfo-output value="tripinfo.xml"/>
        <statistic-output value="statistic.xml"/>
    </output>

    <time>
        <begin value="0"/>
        <end value="3600"/>
    </time>

    <processing>
        <time-to-teleport value="-1"/>
    </processing>

    <traci_server>
        <remote-port value="59367"/>
    </traci_server>

    <random_number>
        <seed value="1395"/>
    </random_number>

    <gui_only>
        <gui-settings-file value="../../data_generation/view_HY_0402.xml"/>
    </gui_only>

</configuration>
-->

<tripinfos xmlns:xsi="http://www.w3.org/2001/XMLSchema-instance" xsi:noNamespaceSchemaLocation="http://sumo.dlr.de/xsd/tripinfo_file.xsd">
    <tripinfo id="1" depart="1.00" departLane="373_4way_66to4way_67_0" departPos="5.10" departSpeed="0.00" departDelay="0.83" arrival="10.00" arrivalLane="373_4way_66to4way_67_0" arrivalPos="85.60" arrivalSpeed="13.60" duration="9.00" routeLength="80.50" waitingTime="0.00" waitingCount="0" stopTime="0.00" timeLoss="3.33" rerouteNo="0" devices="tripinfo_1" vType="DEFAULT_VEHTYPE" speedFactor="1.04" vaporized=""/>
    <tripinfo id="22" depart="4.00" departLane="403_4way_98to4way_83_0" departPos="5.10" departSpeed="0.00" departDelay="0.33" arrival="13.00" arrivalLane="403_4way_98to4way_83_0" arrivalPos="85.60" arrivalSpeed="13.26" duration="9.00" routeLength="80.50" waitingTime="0.00" waitingCount="0" stopTime="0.00" timeLoss="2.91" rerouteNo="0" devices="tripinfo_22" vType="DEFAULT_VEHTYPE" speedFactor="1.00" vaporized=""/>
    <tripinfo id="18" depart="6.00" departLane="137_4way_112to4way_97_0" departPos="5.10" departSpeed="0.00" departDelay="3.00" arrival="15.00" arrivalLane="137_4way_112to4way_97_0" arrivalPos="85.60" arrivalSpeed="12.69" duration="9.00" routeLength="80.50" waitingTime="0.00" waitingCount="0" stopTime="0.00" timeLoss="2.85" rerouteNo="0" devices="tripinfo_18" vType="DEFAULT_VEHTYPE" speedFactor="0.96" vaporized=""/>
    <tripinfo id="47" depart="8.00" departLane="40_3way_180to4way_181_0" departPos="5.10" departSpeed="0.00" departDelay="0.17" arrival="18.00" arrivalLane="40_3way_180to4way_181_0" arrivalPos="85.60" arrivalSpeed="11.29" duration="10.00" routeLength="80.50" waitingTime="0.00" waitingCount="0" stopTime="0.00" timeLoss="3.03" rerouteNo="0" devices="tripinfo_47" vType="DEFAULT_VEHTYPE" speedFactor="0.90" vaporized=""/>
    <tripinfo id="115" depart="20.00" departLane="99_3way_75to4way_76_0" departPos="5.10" departSpeed="0.00" departDelay="0.84" arrival="30.00" arrivalLane="99_3way_75to4way_76_0" arrivalPos="85.60" arrivalSpeed="12.05" duration="10.00" routeLength="80.50" waitingTime="0.00" waitingCount="0" stopTime="0.00" timeLoss="2.99" rerouteNo="0" devices="tripinfo_115" vType="DEFAULT_VEHTYPE" speedFactor="0.92" vaporized=""/>
    <tripinfo id="83" depart="14.00" departLane="256_4way_33to4way_18_0" departPos="5.10" departSpeed="0.00" departDelay="0.17" arrival="32.00" arrivalLane="77_4way_18to3way_3_0" arrivalPos="85.60" arrivalSpeed="12.74" duration="18.00" routeLength="180.50" waitingTime="0.00" waitingCount="0" stopTime="0.00" timeLoss="3.10" rerouteNo="0" devices="tripinfo_83" vType="DEFAULT_VEHTYPE" speedFactor="0.93" vaporized=""/>
    <tripinfo id="7" depart="2.00" departLane="7_3way_119to3way_104_0" departPos="5.10" departSpeed="0.00" departDelay="0.83" arrival="36.00" arrivalLane="88_3way_74to3way_59_0" arrivalPos="85.60" arrivalSpeed="11.98" duration="34.00" routeLength="380.50" waitingTime="0.00" waitingCount="0" stopTime="0.00" timeLoss="4.41" rerouteNo="0" devices="tripinfo_7" vType="DEFAULT_VEHTYPE" speedFactor="0.95" vaporized=""/>
    <tripinfo id="167" depart="28.00" departLane="357_4way_55to4way_70_0" departPos="5.10" departSpeed="0.00" departDelay="0.18" arrival="38.00" arrivalLane="357_4way_55to4way_70_0" arrivalPos="85.60" arrivalSpeed="10.76" duration="10.00" routeLength="80.50" waitingTime="0.00" waitingCount="0" stopTime="0.00" timeLoss="2.66" rerouteNo="0" devices="tripinfo_167" vType="DEFAULT_VEHTYPE" speedFactor="0.85" vaporized=""/>
    <tripinfo id="210" depart="35.00" departLane="54_3way_213to4way_198_0" departPos="5.10" departSpeed="0.00" departDelay="0.01" arrival="44.00" arrivalLane="54_3way_213to4way_198_0" arrivalPos="85.60" arrivalSpeed="16.24" duration="9.00" routeLength="80.50" waitingTime="0.00" waitingCount="0" stopTime="0.00" timeLoss="4.04" rerouteNo="0" devices="tripinfo_210" vType="DEFAULT_VEHTYPE" speedFactor="1.20" vaporized=""/>
    <tripinfo id="156" depart="26.00" departLane="7_3way_119to3way_104_0" departPos="5.10" departSpeed="0.00" departDelay="0.01" arrival="45.00" arrivalLane="8_3way_104to3way_89_0" arrivalPos="85.60" arrivalSpeed="12.31" duration="19.00" routeLength="180.50" waitingTime="0.00" waitingCount="0" stopTime="0.00" timeLoss="3.92" rerouteNo="0" devices="tripinfo_156" vType="DEFAULT_VEHTYPE" speedFactor="0.91" vaporized=""/>
    <tripinfo id="163" depart="28.00" departLane="216_4way_173to4way_158_0" departPos="5.10" departSpeed="0.00" departDelay="0.84" arrival="46.00" arrivalLane="191_4way_158to4way_143_0" arrivalPos="85.60" arrivalSpeed="12.52" duration="18.00" routeLength="180.50" waitingTime="0.00" waitingCount="0" stopTime="0.00" timeLoss="3.42" rerouteNo="0" devices="tripinfo_163" vType="DEFAULT_VEHTYPE" speedFactor="0.94" vaporized=""/>
    <tripinfo id="20" depart="4.00" departLane="395_4way_94to4way_79_0" departPos="5.10" departSpeed="0.00" departDelay="0.67" arrival="50.00" arrivalLane="317_4way_34to4way_33_0" arrivalPos="85.60" arrivalSpeed="11.76" duration="46.00" routeLength="475.13" waitingTime="0.00" waitingCount="0" stopTime="0.00" timeLoss="6.15" rerouteNo="0" devices="tripinfo_20" vType="DEFAULT_VEHTYPE" speedFactor="0.89" vaporized=""/>
    <tripinfo id="149" depart="25.00" departLane="116_4way_88to4way_103_0" departPos="5.10" departSpeed="0.00" departDelay="0.18" arrival="51.00" arrivalLane="150_4way_118to4way_133_0" arrivalPos="85.60" arrivalSpeed="12.10" duration="26.00" routeLength="280.50" waitingTime="0.00" waitingCount="0" stopTime="0.00" timeLoss="4.30" rerouteNo="0" devices="tripinfo_149" vType="DEFAULT_VEHTYPE" speedFactor="0.95" vaporized=""/>
    <tripinfo id="270" depart="45.00" departLane="301_4way_22to4way_37_0" departPos="5.10" departSpeed="0.00" departDelay="0.02" arrival="61.00" arrivalLane="326_4way_37to4way_52_0" arrivalPos="85.60" arrivalSpeed="14.81" duration="16.00" routeLength="180.50" waitingTime="0.00" waitingCount="0" stopTime="0.00" timeLoss="3.73" rerouteNo="0" devices="tripinfo_270" vType="DEFAULT_VEHTYPE" speedFactor="1.09" vaporized=""/>
    <tripinfo id="209" depart="37.00" departLane="227_4way_178to4way_163_0" departPos="5.10" departSpeed="0.00" departDelay="2.18" arrival="63.00" arrivalLane="175_4way_148to4way_133_0" arrivalPos="85.60" arrivalSpeed="12.95" duration="26.00" routeLength="280.50" waitingTime="0.00" waitingCount="0" stopTime="0.00" timeLoss="4.07" rerouteNo="0" devices="tripinfo_209" vType="DEFAULT_VEHTYPE" speedFactor="0.95" vaporized=""/>
    <tripinfo id="223" depart="38.00" departLane="114_4way_87to4way_102_0" departPos="5.10" departSpeed="0.00" departDelay="0.85" arrival="64.00" arrivalLane="148_4way_117to4way_118_0" arrivalPos="85.60" arrivalSpeed="13.17" duration="26.00" routeLength="275.13" waitingTime="0.00" waitingCount="0" stopTime="0.00" timeLoss="5.58" rerouteNo="0" devices="tripinfo_223" vType="DEFAULT_VEHTYPE" speedFactor="1.03" vaporized=""/>
    <tripinfo id="331" depart="56.00" departLane="233_4way_168to4way_183_0" departPos="5.10" departSpeed="0.00" departDelay="0.85" arrival="66.00" arrivalLane="233_4way_168to4way_183_0" arrivalPos="85.60" arrivalSpeed="12.13" duration="10.00" routeLength="80.50" waitingTime="0.00" waitingCount="0" stopTime="0.00" timeLoss="3.76" rerouteNo="0" devices="tripinfo_331" vType="DEFAULT_VEHTYPE" speedFactor="0.94" vaporized=""/>
    <tripinfo id="350" depart="59.00" departLane="8_3way_104to3way_89_0" departPos="5.10" departSpeed="0.00" departDelay="0.69" arrival="68.00" arrivalLane="8_3way_104to3way_89_0" arrivalPos="85.60" arrivalSpeed="14.60" duration="9.00" routeLength="80.50" waitingTime="0.00" waitingCount="0" stopTime="0.00" timeLoss="3.40" rerouteNo="0" devices="tripinfo_350" vType="DEFAULT_VEHTYPE" speedFactor="1.07" vaporized=""/>
    <tripinfo id="204" depart="37.00" departLane="345_4way_64to4way_49_0" departPos="5.10" departSpeed="0.00" departDelay="3.01" arrival="69.00" arrivalLane="81_4way_19to3way_4_0" arrivalPos="85.60" arrivalSpeed="6.66" duration="32.00" routeLength="380.50" waitingTime="0.00" waitingCount="0" stopTime="0.00" timeLoss="7.31" rerouteNo="0" devices="tripinfo_204" vType="DEFAULT_VEHTYPE" speedFactor="1.12" vaporized=""/>
    <tripinfo id="317" depart="53.00" departLane="37_3way_179to3way_194_0" departPos="5.10" departSpeed="0.00" departDelay="0.19" arrival="69.00" arrivalLane="41_3way_194to3way_209_0" arrivalPos="85.60" arrivalSpeed="15.45" duration="16.00" routeLength="180.50" waitingTime="0.00" waitingCount="0" stopTime="0.00" timeLoss="4.04" rerouteNo="0" devices="tripinfo_317" vType="DEFAULT_VEHTYPE" speedFactor="1.11" vaporized=""/>
    <tripinfo id="37" depart="7.00" departLane="103_3way_9to4way_24_0" departPos="5.10" departSpeed="0.00" departDelay="0.84" arrival="70.00" arrivalLane="142_4way_114to4way_129_0" arrivalPos="85.60" arrivalSpeed="12.91" duration="63.00" routeLength="780.50" waitingTime="0.00" waitingCount="0" stopTime="0.00" timeLoss="5.91" rerouteNo="0" devices="tripinfo_37" vType="DEFAULT_VEHTYPE" speedFactor="0.99" vaporized=""/>
    <tripinfo id="108" depart="18.00" departLane="125_4way_108to4way_93_0" departPos="5.10" departSpeed="0.00" departDelay="0.01" arrival="70.00" arrivalLane="410_4way_93to4way_92_0" arrivalPos="85.60" arrivalSpeed="5.23" duration="52.00" routeLength="175.13" waitingTime="24.00" waitingCount="1" stopTime="0.00" timeLoss="36.29" rerouteNo="0" devices="tripinfo_108" vType="DEFAULT_VEHTYPE" speedFactor="0.88" vaporized=""/>
    <tripinfo id="249" depart="42.00" departLane="368_4way_78to4way_63_0" departPos="5.10" departSpeed="0.00" departDelay="0.52" arrival="70.00" arrivalLane="365_4way_63to4way_62_0" arrivalPos="85.60" arrivalSpeed="5.56" duration="28.00" routeLength="175.13" waitingTime="5.00" waitingCount="1" stopTime="0.00" timeLoss="16.12" rerouteNo="0" devices="tripinfo_249" vType="DEFAULT_VEHTYPE" speedFactor="1.12" vaporized=""/>
    <tripinfo id="255" depart="43.00" departLane="165_4way_128to4way_129_0" departPos="5.10" departSpeed="0.00" departDelay="0.52" arrival="70.00" arrivalLane="165_4way_128to4way_129_0" arrivalPos="85.60" arrivalSpeed="5.61" duration="27.00" routeLength="80.50" waitingTime="12.00" waitingCount="1" stopTime="0.00" timeLoss="19.28" rerouteNo="0" devices="tripinfo_255" vType="DEFAULT_VEHTYPE" speedFactor="0.76" vaporized=""/>
    <tripinfo id="206" depart="35.00" departLane="93_4way_61to3way_60_0" departPos="5.10" departSpeed="0.00" departDelay="0.68" arrival="71.00" arrivalLane="93_4way_61to3way_60_0" arrivalPos="85.60" arrivalSpeed="6.36" duration="36.00" routeLength="80.50" waitingTime="21.00" waitingCount="1" stopTime="0.00" timeLoss="29.25" rerouteNo="0" devices="tripinfo_206" vType="DEFAULT_VEHTYPE" speedFactor="0.92" vaporized=""/>
    <tripinfo id="176" depart="30.00" departLane="160_4way_140to4way_125_0" departPos="5.10" departSpeed="0.00" departDelay="0.68" arrival="73.00" arrivalLane="394_4way_80to4way_79_0" arrivalPos="85.60" arrivalSpeed="12.31" duration="43.00" routeLength="475.13" waitingTime="0.00" waitingCount="0" stopTime="0.00" timeLoss="6.68" rerouteNo="0" devices="tripinfo_176" vType="DEFAULT_VEHTYPE" speedFactor="0.97" vaporized=""/>
    <tripinfo id="312" depart="52.00" departLane="272_4way_188to4way_203_0" departPos="5.10" departSpeed="0.00" departDelay="0.02" arrival="73.00" arrivalLane="293_4way_203to4way_204_0" arrivalPos="85.60" arrivalSpeed="10.86" duration="21.00" routeLength="175.13" waitingTime="0.00" waitingCount="0" stopTime="0.00" timeLoss="7.05" rerouteNo="0" devices="tripinfo_312" vType="DEFAULT_VEHTYPE" speedFactor="0.98" vaporized=""/>
    <tripinfo id="26" depart="5.00" departLane="34_3way_164to4way_163_0" departPos="5.10" departSpeed="0.00" departDelay="0.67" arrival="77.00" arrivalLane="227_4way_163to4way_178_0" arrivalPos="85.60" arrivalSpeed="13.99" duration="72.00" routeLength="175.13" waitingTime="50.00" waitingCount="1" stopTime="0.00" timeLoss="58.34" rerouteNo="0" devices="tripinfo_26" vType="DEFAULT_VEHTYPE" speedFactor="1.03" vaporized=""/>
    <tripinfo id="73" depart="13.00" departLane="199_4way_147to4way_162_0" departPos="5.10" departSpeed="0.00" departDelay="0.84" arrival="77.00" arrivalLane="34_4way_163to3way_164_0" arrivalPos="85.60" arrivalSpeed="12.38" duration="64.00" routeLength="275.13" waitingTime="31.00" waitingCount="1" stopTime="0.00" timeLoss="42.56" rerouteNo="0" devices="tripinfo_73" vType="DEFAULT_VEHTYPE" speedFactor="0.98" vaporized=""/>
    <tripinfo id="150" depart="25.00" departLane="357_4way_55to4way_70_0" departPos="5.10" departSpeed="0.00" departDelay="0.01" arrival="77.00" arrivalLane="109_4way_101to4way_102_0" arrivalPos="85.60" arrivalSpeed="11.79" duration="52.00" routeLength="475.13" waitingTime="2.00" waitingCount="1" stopTime="0.00" timeLoss="13.78" rerouteNo="0" devices="tripinfo_150" vType="DEFAULT_VEHTYPE" speedFactor="0.92" vaporized=""/>
    <tripinfo id="127" depart="22.00" departLane="8_3way_104to3way_89_0" departPos="5.10" departSpeed="0.00" departDelay="0.84" arrival="79.00" arrivalLane="408_4way_88to4way_87_0" arrivalPos="85.60" arrivalSpeed="12.64" duration="57.00" routeLength="275.13" waitingTime="24.00" waitingCount="1" stopTime="0.00" timeLoss="36.20" rerouteNo="0" devices="tripinfo_127" vType="DEFAULT_VEHTYPE" speedFactor="1.00" vaporized=""/>
    <tripinfo id="272" depart="46.00" departLane="246_4way_175to4way_174_0" departPos="5.10" departSpeed="0.00" departDelay="0.68" arrival="79.00" arrivalLane="244_4way_174to4way_173_0" arrivalPos="85.60" arrivalSpeed="9.30" duration="33.00" routeLength="180.50" waitingTime="7.00" waitingCount="1" stopTime="0.00" timeLoss="14.91" rerouteNo="0" devices="tripinfo_272" vType="DEFAULT_VEHTYPE" speedFactor="0.72" vaporized=""/>
    <tripinfo id="93" depart="16.00" departLane="298_4way_22to4way_21_0" departPos="5.10" departSpeed="0.00" departDelay="0.51" arrival="80.00" arrivalLane="299_4way_21to4way_36_0" arrivalPos="85.60" arrivalSpeed="13.08" duration="64.00" routeLength="175.13" waitingTime="41.00" waitingCount="1" stopTime="0.00" timeLoss="50.25" rerouteNo="0" devices="tripinfo_93" vType="DEFAULT_VEHTYPE" speedFactor="1.00" vaporized=""/>
    <tripinfo id="9" depart="2.00" departLane="224_4way_176to4way_161_0" departPos="5.10" departSpeed="0.00" departDelay="0.50" arrival="81.00" arrivalLane="356_4way_56to4way_55_0" arrivalPos="85.60" arrivalSpeed="12.53" duration="79.00" routeLength="875.13" waitingTime="0.00" waitingCount="0" stopTime="0.00" timeLoss="8.13" rerouteNo="0" devices="tripinfo_9" vType="DEFAULT_VEHTYPE" speedFactor="0.91" vaporized=""/>
    <tripinfo id="430" depart="72.00" departLane="228_4way_167to4way_166_0" departPos="5.10" departSpeed="0.00" departDelay="0.36" arrival="82.00" arrivalLane="228_4way_167to4way_166_0" arrivalPos="85.60" arrivalSpeed="12.23" duration="10.00" routeLength="80.50" waitingTime="0.00" waitingCount="0" stopTime="0.00" timeLoss="3.01" rerouteNo="0" devices="tripinfo_430" vType="DEFAULT_VEHTYPE" speedFactor="0.90" vaporized=""/>
    <tripinfo id="247" depart="42.00" departLane="232_4way_168to4way_169_0" departPos="5.10" departSpeed="0.00" departDelay="0.85" arrival="83.00" arrivalLane="208_4way_169to4way_154_0" arrivalPos="85.60" arrivalSpeed="14.73" duration="41.00" routeLength="175.13" waitingTime="18.00" waitingCount="1" stopTime="0.00" timeLoss="28.50" rerouteNo="0" devices="tripinfo_247" vType="DEFAULT_VEHTYPE" speedFactor="1.07" vaporized=""/>
    <tripinfo id="10" depart="2.00" departLane="170_4way_130to4way_145_0" departPos="5.10" departSpeed="0.00" departDelay="0.33" arrival="84.00" arrivalLane="198_4way_147to4way_148_0" arrivalPos="85.60" arrivalSpeed="13.88" duration="82.00" routeLength="375.13" waitingTime="43.00" waitingCount="1" stopTime="0.00" timeLoss="54.71" rerouteNo="0" devices="tripinfo_10" vType="DEFAULT_VEHTYPE" speedFactor="1.04" vaporized=""/>
    <tripinfo id="17" depart="3.00" departLane="137_4way_112to4way_97_0" departPos="5.10" departSpeed="0.00" departDelay="0.17" arrival="84.00" arrivalLane="86_3way_6to3way_5_0" arrivalPos="85.60" arrivalSpeed="14.17" duration="81.00" routeLength="875.13" waitingTime="8.00" waitingCount="1" stopTime="0.00" timeLoss="19.22" rerouteNo="0" devices="tripinfo_17" vType="DEFAULT_VEHTYPE" speedFactor="1.04" vaporized=""/>
    <tripinfo id="148" depart="25.00" departLane="196_4way_146to4way_147_0" departPos="5.10" departSpeed="0.00" departDelay="0.34" arrival="84.00" arrivalLane="28_4way_148to3way_149_0" arrivalPos="85.60" arrivalSpeed="13.81" duration="59.00" routeLength="280.50" waitingTime="30.00" waitingCount="1" stopTime="0.00" timeLoss="39.29" rerouteNo="0" devices="tripinfo_148" vType="DEFAULT_VEHTYPE" speedFactor="1.07" vaporized=""/>
    <tripinfo id="455" depart="76.00" departLane="28_3way_149to4way_148_0" departPos="5.10" departSpeed="0.00" departDelay="0.20" arrival="85.00" arrivalLane="28_3way_149to4way_148_0" arrivalPos="85.60" arrivalSpeed="14.85" duration="9.00" routeLength="80.50" waitingTime="0.00" waitingCount="0" stopTime="0.00" timeLoss="3.02" rerouteNo="0" devices="tripinfo_455" vType="DEFAULT_VEHTYPE" speedFactor="1.08" vaporized=""/>
    <tripinfo id="98" depart="17.00" departLane="364_4way_76to4way_61_0" departPos="5.10" departSpeed="0.00" departDelay="0.67" arrival="86.00" arrivalLane="78_3way_45to3way_30_0" arrivalPos="85.60" arrivalSpeed="11.90" duration="69.00" routeLength="374.92" waitingTime="26.00" waitingCount="1" stopTime="0.00" timeLoss="36.70" rerouteNo="0" devices="tripinfo_98" vType="DEFAULT_VEHTYPE" speedFactor="0.88" vaporized=""/>
    <tripinfo id="118" depart="24.00" departLane="235_4way_184to4way_169_0" departPos="5.10" departSpeed="0.00" departDelay="4.34" arrival="86.00" arrivalLane="392_4way_79to4way_78_0" arrivalPos="85.60" arrivalSpeed="13.27" duration="62.00" routeLength="775.13" waitingTime="0.00" waitingCount="0" stopTime="0.00" timeLoss="7.64" rerouteNo="0" devices="tripinfo_118" vType="DEFAULT_VEHTYPE" speedFactor="1.05" vaporized=""/>
    <tripinfo id="120" depart="20.00" departLane="41_3way_209to3way_194_0" departPos="5.10" departSpeed="0.00" departDelay="0.01" arrival="86.00" arrivalLane="196_4way_147to4way_146_0" arrivalPos="85.60" arrivalSpeed="13.67" duration="66.00" routeLength="675.13" waitingTime="5.00" waitingCount="1" stopTime="0.00" timeLoss="19.11" rerouteNo="0" devices="tripinfo_120" vType="DEFAULT_VEHTYPE" speedFactor="1.06" vaporized=""/>
    <tripinfo id="323" depart="55.00" departLane="28_3way_149to4way_148_0" departPos="5.10" departSpeed="0.00" departDelay="1.19" arrival="87.00" arrivalLane="196_4way_147to4way_146_0" arrivalPos="85.60" arrivalSpeed="14.77" duration="32.00" routeLength="280.50" waitingTime="3.00" waitingCount="1" stopTime="0.00" timeLoss="14.50" rerouteNo="0" devices="tripinfo_323" vType="DEFAULT_VEHTYPE" speedFactor="1.15" vaporized=""/>
    <tripinfo id="388" depart="65.00" departLane="384_4way_86to4way_71_0" departPos="5.10" departSpeed="0.00" departDelay="0.36" arrival="93.00" arrivalLane="356_4way_56to4way_55_0" arrivalPos="85.60" arrivalSpeed="12.87" duration="28.00" routeLength="275.13" waitingTime="0.00" waitingCount="0" stopTime="0.00" timeLoss="5.85" rerouteNo="0" devices="tripinfo_388" vType="DEFAULT_VEHTYPE" speedFactor="0.95" vaporized=""/>
    <tripinfo id="407" depart="68.00" departLane="259_4way_183to4way_182_0" departPos="5.10" departSpeed="0.00" departDelay="0.19" arrival="93.00" arrivalLane="40_4way_181to3way_180_0" arrivalPos="85.60" arrivalSpeed="12.83" duration="25.00" routeLength="280.50" waitingTime="0.00" waitingCount="0" stopTime="0.00" timeLoss="3.88" rerouteNo="0" devices="tripinfo_407" vType="DEFAULT_VEHTYPE" speedFactor="0.99" vaporized=""/>
    <tripinfo id="489" depart="82.00" departLane="194_4way_145to4way_146_0" departPos="5.10" departSpeed="0.00" departDelay="0.53" arrival="98.00" arrivalLane="196_4way_146to4way_147_0" arrivalPos="85.60" arrivalSpeed="15.87" duration="16.00" routeLength="180.50" waitingTime="0.00" waitingCount="0" stopTime="0.00" timeLoss="3.73" rerouteNo="0" devices="tripinfo_489" vType="DEFAULT_VEHTYPE" speedFactor="1.15" vaporized=""/>
    <tripinfo id="274" depart="46.00" departLane="23_3way_149to3way_134_0" departPos="5.10" departSpeed="0.00" departDelay="0.35" arrival="99.00" arrivalLane="105_4way_101to4way_100_0" arrivalPos="85.60" arrivalSpeed="14.28" duration="53.00" routeLength="675.13" waitingTime="0.00" waitingCount="0" stopTime="0.00" timeLoss="7.10" rerouteNo="0" devices="tripinfo_274" vType="DEFAULT_VEHTYPE" speedFactor="1.09" vaporized=""/>
    <tripinfo id="530" depart="91.00" departLane="45_3way_3to3way_2_0" departPos="5.10" departSpeed="0.00" departDelay="2.70" arrival="101.00" arrivalLane="45_3way_3to3way_2_0" arrivalPos="85.60" arrivalSpeed="11.00" duration="10.00" routeLength="80.50" waitingTime="0.00" waitingCount="0" stopTime="0.00" timeLoss="2.82" rerouteNo="0" devices="tripinfo_530" vType="DEFAULT_VEHTYPE" speedFactor="0.85" vaporized=""/>
    <tripinfo id="517" depart="87.00" departLane="119_4way_106to4way_91_0" departPos="5.10" departSpeed="0.00" departDelay="0.87" arrival="104.00" arrivalLane="389_4way_91to4way_76_0" arrivalPos="85.60" arrivalSpeed="12.81" duration="17.00" routeLength="180.50" waitingTime="0.00" waitingCount="0" stopTime="0.00" timeLoss="3.25" rerouteNo="0" devices="tripinfo_517" vType="DEFAULT_VEHTYPE" speedFactor="0.99" vaporized=""/>
    <tripinfo id="193" depart="33.00" departLane="55_3way_214to3way_215_0" departPos="5.10" departSpeed="0.00" departDelay="0.85" arrival="108.00" arrivalLane="278_4way_205to4way_190_0" arrivalPos="85.60" arrivalSpeed="10.64" duration="75.00" routeLength="775.13" waitingTime="0.00" waitingCount="0" stopTime="0.00" timeLoss="8.23" rerouteNo="0" devices="tripinfo_193" vType="DEFAULT_VEHTYPE" speedFactor="0.85" vaporized=""/>
    <tripinfo id="592" depart="99.00" departLane="302_4way_23to4way_24_0" departPos="5.10" departSpeed="0.00" departDelay="0.37" arrival="108.00" arrivalLane="302_4way_23to4way_24_0" arrivalPos="85.60" arrivalSpeed="14.47" duration="9.00" routeLength="80.50" waitingTime="0.00" waitingCount="0" stopTime="0.00" timeLoss="3.09" rerouteNo="0" devices="tripinfo_592" vType="DEFAULT_VEHTYPE" speedFactor="1.05" vaporized=""/>
    <tripinfo id="12" depart="2.00" departLane="270_4way_187to4way_202_0" departPos="5.10" departSpeed="0.00" departDelay="0.00" arrival="112.00" arrivalLane="71_3way_222to3way_223_0" arrivalPos="85.60" arrivalSpeed="15.94" duration="110.00" routeLength="775.13" waitingTime="47.00" waitingCount="1" stopTime="0.00" timeLoss="60.81" rerouteNo="0" devices="tripinfo_12" vType="DEFAULT_VEHTYPE" speedFactor="1.16" vaporized=""/>
    <tripinfo id="343" depart="58.00" departLane="27_3way_164to3way_149_0" departPos="5.10" departSpeed="0.00" departDelay="0.86" arrival="113.00" arrivalLane="97_3way_74to4way_73_0" arrivalPos="85.60" arrivalSpeed="14.22" duration="55.00" routeLength="675.13" waitingTime="0.00" waitingCount="0" stopTime="0.00" timeLoss="7.34" rerouteNo="0" devices="tripinfo_343" vType="DEFAULT_VEHTYPE" speedFactor="1.03" vaporized=""/>
    <tripinfo id="202" depart="34.00" departLane="29_3way_15to3way_30_0" departPos="5.10" departSpeed="0.00" departDelay="0.35" arrival="114.00" arrivalLane="151_4way_121to4way_122_0" arrivalPos="85.60" arrivalSpeed="11.24" duration="80.00" routeLength="875.13" waitingTime="0.00" waitingCount="0" stopTime="0.00" timeLoss="8.31" rerouteNo="0" devices="tripinfo_202" vType="DEFAULT_VEHTYPE" speedFactor="0.90" vaporized=""/>
    <tripinfo id="444" depart="74.00" departLane="369_4way_65to4way_64_0" departPos="5.10" departSpeed="0.00" departDelay="0.03" arrival="114.00" arrivalLane="128_4way_94to4way_109_0" arrivalPos="85.60" arrivalSpeed="10.94" duration="40.00" routeLength="375.13" waitingTime="0.00" waitingCount="0" stopTime="0.00" timeLoss="6.46" rerouteNo="0" devices="tripinfo_444" vType="DEFAULT_VEHTYPE" speedFactor="0.85" vaporized=""/>
    <tripinfo id="436" depart="73.00" departLane="127_4way_124to4way_109_0" departPos="5.10" departSpeed="0.00" departDelay="0.36" arrival="119.00" arrivalLane="390_4way_78to4way_77_0" arrivalPos="85.60" arrivalSpeed="11.42" duration="46.00" routeLength="475.13" waitingTime="0.00" waitingCount="0" stopTime="0.00" timeLoss="6.33" rerouteNo="0" devices="tripinfo_436" vType="DEFAULT_VEHTYPE" speedFactor="0.90" vaporized=""/>
    <tripinfo id="51" depart="9.00" departLane="408_4way_88to4way_87_0" departPos="5.10" departSpeed="0.00" departDelay="0.50" arrival="123.00" arrivalLane="143_4way_99to4way_114_0" arrivalPos="85.60" arrivalSpeed="9.77" duration="114.00" routeLength="575.13" waitingTime="45.00" waitingCount="1" stopTime="0.00" timeLoss="56.78" rerouteNo="0" devices="tripinfo_51" vType="DEFAULT_VEHTYPE" speedFactor="0.74" vaporized=""/>
    <tripinfo id="200" depart="34.00" departLane="312_4way_28to4way_43_0" departPos="5.10" departSpeed="0.00" departDelay="0.68" arrival="124.00" arrivalLane="27_3way_149to3way_164_0" arrivalPos="85.60" arrivalSpeed="12.84" duration="90.00" routeLength="974.92" waitingTime="1.00" waitingCount="1" stopTime="0.00" timeLoss="15.67" rerouteNo="0" devices="tripinfo_200" vType="DEFAULT_VEHTYPE" speedFactor="0.96" vaporized=""/>
    <tripinfo id="65" depart="11.00" departLane="370_4way_64to4way_79_0" departPos="5.10" departSpeed="0.00" departDelay="0.17" arrival="130.00" arrivalLane="132_4way_111to4way_112_0" arrivalPos="85.60" arrivalSpeed="5.87" duration="119.00" routeLength="575.13" waitingTime="64.00" waitingCount="2" stopTime="0.00" timeLoss="83.69" rerouteNo="0" devices="tripinfo_65" vType="DEFAULT_VEHTYPE" speedFactor="1.20" vaporized=""/>
    <tripinfo id="267" depart="45.00" departLane="242_4way_173to4way_172_0" departPos="5.10" departSpeed="0.00" departDelay="0.52" arrival="130.00" arrivalLane="240_4way_172to4way_171_0" arrivalPos="85.60" arrivalSpeed="5.17" duration="85.00" routeLength="180.50" waitingTime="58.00" waitingCount="2" stopTime="0.00" timeLoss="73.18" rerouteNo="0" devices="tripinfo_267" vType="DEFAULT_VEHTYPE" speedFactor="1.11" vaporized=""/>
    <tripinfo id="304" depart="51.00" departLane="203_4way_152to4way_153_0" departPos="5.10" departSpeed="0.00" departDelay="0.35" arrival="130.00" arrivalLane="205_4way_153to4way_154_0" arrivalPos="85.60" arrivalSpeed="5.13" duration="79.00" routeLength="180.50" waitingTime="50.00" waitingCount="2" stopTime="0.00" timeLoss="65.96" rerouteNo="0" devices="tripinfo_304" vType="DEFAULT_VEHTYPE" speedFactor="1.00" vaporized=""/>
    <tripinfo id="307" depart="52.00" departLane="328_4way_53to4way_38_0" departPos="5.10" departSpeed="0.00" departDelay="0.85" arrival="130.00" arrivalLane="300_4way_23to4way_22_0" arrivalPos="85.60" arrivalSpeed="4.66" duration="78.00" routeLength="275.13" waitingTime="49.00" waitingCount="1" stopTime="0.00" timeLoss="58.42" rerouteNo="0" devices="tripinfo_307" vType="DEFAULT_VEHTYPE" speedFactor="1.04" vaporized=""/>
    <tripinfo id="342" depart="57.00" departLane="243_4way_172to4way_187_0" departPos="5.10" departSpeed="0.00" departDelay="0.02" arrival="130.00" arrivalLane="292_4way_202to4way_203_0" arrivalPos="85.60" arrivalSpeed="4.93" duration="73.00" routeLength="275.13" waitingTime="43.00" waitingCount="1" stopTime="0.00" timeLoss="53.78" rerouteNo="0" devices="tripinfo_342" vType="DEFAULT_VEHTYPE" speedFactor="1.06" vaporized=""/>
    <tripinfo id="446" depart="75.00" departLane="130_4way_110to4way_125_0" departPos="5.10" departSpeed="0.00" departDelay="0.70" arrival="130.00" arrivalLane="161_4way_126to4way_127_0" arrivalPos="85.60" arrivalSpeed="4.67" duration="55.00" routeLength="275.13" waitingTime="24.00" waitingCount="1" stopTime="0.00" timeLoss="35.44" rerouteNo="0" devices="tripinfo_446" vType="DEFAULT_VEHTYPE" speedFactor="1.07" vaporized=""/>
    <tripinfo id="538" depart="90.00" departLane="265_4way_185to4way_186_0" departPos="5.10" departSpeed="0.00" departDelay="0.37" arrival="130.00" arrivalLane="267_4way_186to4way_187_0" arrivalPos="85.60" arrivalSpeed="4.35" duration="40.00" routeLength="180.50" waitingTime="19.00" waitingCount="1" stopTime="0.00" timeLoss="27.40" rerouteNo="0" devices="tripinfo_538" vType="DEFAULT_VEHTYPE" speedFactor="1.03" vaporized=""/>
    <tripinfo id="186" depart="31.00" departLane="243_4way_172to4way_187_0" departPos="5.10" departSpeed="0.00" departDelay="0.01" arrival="131.00" arrivalLane="271_4way_188to4way_189_0" arrivalPos="85.60" arrivalSpeed="6.80" duration="100.00" routeLength="275.13" waitingTime="62.00" waitingCount="2" stopTime="0.00" timeLoss="75.91" rerouteNo="0" devices="tripinfo_186" vType="DEFAULT_VEHTYPE" speedFactor="0.87" vaporized=""/>
    <tripinfo id="253" depart="43.00" departLane="127_4way_124to4way_109_0" departPos="5.10" departSpeed="0.00" departDelay="0.85" arrival="131.00" arrivalLane="388_4way_77to4way_76_0" arrivalPos="85.60" arrivalSpeed="5.98" duration="88.00" routeLength="575.13" waitingTime="33.00" waitingCount="1" stopTime="0.00" timeLoss="45.21" rerouteNo="0" devices="tripinfo_253" vType="DEFAULT_VEHTYPE" speedFactor="0.99" vaporized=""/>