<?xml version="1.0" encoding="UTF-8"?>

<!-- generated on 2023-07-29 02:47:35 by Eclipse SUMO sumo Version 1.12.0
<configuration xmlns:xsi="http://www.w3.org/2001/XMLSchema-instance" xsi:noNamespaceSchemaLocation="http://sumo.dlr.de/xsd/sumoConfiguration.xsd">

    <input>
        <net-file value="../../data_generation/sq.net.xml"/>
        <route-files value="../../data_generation/sq.rou.xml"/>
    </input>

    <output>
        <tripinfo-output value="tripinfo.xml"/>
        <statistic-output value="statistic.xml"/>
    </output>

    <time>
        <begin value="0"/>
        <end value="3600"/>
    </time>

    <processing>
        <time-to-teleport value="-1"/>
    </processing>

    <traci_server>
        <remote-port value="37141"/>
    </traci_server>

    <random_number>
        <seed value="1395"/>
    </random_number>

    <gui_only>
        <gui-settings-file value="../../data_generation/view_HY_0402.xml"/>
    </gui_only>

</configuration>
-->

<tripinfos xmlns:xsi="http://www.w3.org/2001/XMLSchema-instance" xsi:noNamespaceSchemaLocation="http://sumo.dlr.de/xsd/tripinfo_file.xsd">
    <tripinfo id="18" depart="6.00" departLane="102_4way_44to4way_34_0" departPos="5.10" departSpeed="0.00" departDelay="3.00" arrival="15.00" arrivalLane="102_4way_44to4way_34_0" arrivalPos="85.60" arrivalSpeed="12.04" duration="9.00" routeLength="80.50" waitingTime="0.00" waitingCount="0" stopTime="0.00" timeLoss="2.93" rerouteNo="0" devices="tripinfo_18" vType="DEFAULT_VEHTYPE" speedFactor="0.96" vaporized=""/>
    <tripinfo id="0" depart="0.00" departLane="131_4way_55to4way_54_0" departPos="5.10" departSpeed="0.00" departDelay="0.00" arrival="18.00" arrivalLane="129_4way_54to4way_53_0" arrivalPos="85.60" arrivalSpeed="13.28" duration="18.00" routeLength="180.50" waitingTime="0.00" waitingCount="0" stopTime="0.00" timeLoss="4.13" rerouteNo="0" devices="tripinfo_0" vType="DEFAULT_VEHTYPE" speedFactor="1.00" vaporized=""/>
    <tripinfo id="23" depart="4.00" departLane="81_4way_31to4way_21_0" departPos="5.10" departSpeed="0.00" departDelay="0.17" arrival="25.00" arrivalLane="12_4way_21to3way_20_0" arrivalPos="85.60" arrivalSpeed="11.14" duration="21.00" routeLength="175.13" waitingTime="0.00" waitingCount="0" stopTime="0.00" timeLoss="5.12" rerouteNo="0" devices="tripinfo_23" vType="DEFAULT_VEHTYPE" speedFactor="0.87" vaporized=""/>
    <tripinfo id="1" depart="1.00" departLane="129_4way_53to4way_54_0" departPos="5.10" departSpeed="0.00" departDelay="0.83" arrival="34.00" arrivalLane="87_4way_34to4way_24_0" arrivalPos="85.60" arrivalSpeed="14.00" duration="33.00" routeLength="375.13" waitingTime="0.00" waitingCount="0" stopTime="0.00" timeLoss="5.78" rerouteNo="0" devices="tripinfo_1" vType="DEFAULT_VEHTYPE" speedFactor="1.04" vaporized=""/>
    <tripinfo id="90" depart="15.00" departLane="52_3way_92to3way_93_0" departPos="5.10" departSpeed="0.00" departDelay="0.01" arrival="34.00" arrivalLane="55_3way_93to4way_83_0" arrivalPos="85.60" arrivalSpeed="11.97" duration="19.00" routeLength="175.13" waitingTime="0.00" waitingCount="0" stopTime="0.00" timeLoss="4.86" rerouteNo="0" devices="tripinfo_90" vType="DEFAULT_VEHTYPE" speedFactor="0.95" vaporized=""/>
    <tripinfo id="148" depart="25.00" departLane="139_4way_58to4way_68_0" departPos="5.10" departSpeed="0.00" departDelay="0.34" arrival="34.00" arrivalLane="139_4way_58to4way_68_0" arrivalPos="85.60" arrivalSpeed="13.72" duration="9.00" routeLength="80.50" waitingTime="0.00" waitingCount="0" stopTime="0.00" timeLoss="3.13" rerouteNo="0" devices="tripinfo_148" vType="DEFAULT_VEHTYPE" speedFactor="1.07" vaporized=""/>
    <tripinfo id="162" depart="27.00" departLane="89_4way_35to4way_25_0" departPos="5.10" departSpeed="0.00" departDelay="0.01" arrival="37.00" arrivalLane="89_4way_35to4way_25_0" arrivalPos="85.60" arrivalSpeed="13.09" duration="10.00" routeLength="80.50" waitingTime="0.00" waitingCount="0" stopTime="0.00" timeLoss="3.15" rerouteNo="0" devices="tripinfo_162" vType="DEFAULT_VEHTYPE" speedFactor="0.96" vaporized=""/>
    <tripinfo id="163" depart="28.00" departLane="30_4way_51to3way_50_0" departPos="5.10" departSpeed="0.00" departDelay="0.84" arrival="37.00" arrivalLane="30_4way_51to3way_50_0" arrivalPos="85.60" arrivalSpeed="12.39" duration="9.00" routeLength="80.50" waitingTime="0.00" waitingCount="0" stopTime="0.00" timeLoss="2.82" rerouteNo="0" devices="tripinfo_163" vType="DEFAULT_VEHTYPE" speedFactor="0.94" vaporized=""/>
    <tripinfo id="19" depart="4.00" departLane="89_4way_25to4way_35_0" departPos="5.10" departSpeed="0.00" departDelay="0.83" arrival="42.00" arrivalLane="107_4way_37to4way_38_0" arrivalPos="85.60" arrivalSpeed="12.15" duration="38.00" routeLength="375.13" waitingTime="0.00" waitingCount="0" stopTime="0.00" timeLoss="6.24" rerouteNo="0" devices="tripinfo_19" vType="DEFAULT_VEHTYPE" speedFactor="0.89" vaporized=""/>
    <tripinfo id="145" depart="25.00" departLane="61_3way_96to4way_86_0" departPos="5.10" departSpeed="0.00" departDelay="0.84" arrival="42.00" arrivalLane="166_4way_86to4way_76_0" arrivalPos="85.60" arrivalSpeed="12.99" duration="17.00" routeLength="180.50" waitingTime="0.00" waitingCount="0" stopTime="0.00" timeLoss="3.36" rerouteNo="0" devices="tripinfo_145" vType="DEFAULT_VEHTYPE" speedFactor="0.96" vaporized=""/>
    <tripinfo id="134" depart="25.00" departLane="138_4way_57to4way_67_0" departPos="5.10" departSpeed="0.00" departDelay="2.68" arrival="44.00" arrivalLane="152_4way_67to4way_68_0" arrivalPos="85.60" arrivalSpeed="12.80" duration="19.00" routeLength="175.13" waitingTime="0.00" waitingCount="0" stopTime="0.00" timeLoss="5.59" rerouteNo="0" devices="tripinfo_134" vType="DEFAULT_VEHTYPE" speedFactor="1.00" vaporized=""/>
    <tripinfo id="151" depart="26.00" departLane="53_3way_92to4way_82_0" departPos="5.10" departSpeed="0.00" departDelay="0.84" arrival="45.00" arrivalLane="170_4way_82to4way_81_0" arrivalPos="85.60" arrivalSpeed="13.35" duration="19.00" routeLength="175.13" waitingTime="0.00" waitingCount="0" stopTime="0.00" timeLoss="5.46" rerouteNo="0" devices="tripinfo_151" vType="DEFAULT_VEHTYPE" speedFactor="1.02" vaporized=""/>
    <tripinfo id="119" depart="20.00" departLane="19_3way_49to3way_39_0" departPos="5.10" departSpeed="0.00" departDelay="0.17" arrival="48.00" arrivalLane="107_4way_38to4way_37_0" arrivalPos="85.60" arrivalSpeed="11.52" duration="28.00" routeLength="275.13" waitingTime="0.00" waitingCount="0" stopTime="0.00" timeLoss="4.64" rerouteNo="0" devices="tripinfo_119" vType="DEFAULT_VEHTYPE" speedFactor="0.90" vaporized=""/>
    <tripinfo id="186" depart="32.00" departLane="137_4way_58to4way_57_0" departPos="5.10" departSpeed="0.00" departDelay="1.01" arrival="50.00" arrivalLane="135_4way_57to4way_56_0" arrivalPos="85.60" arrivalSpeed="11.30" duration="18.00" routeLength="180.50" waitingTime="0.00" waitingCount="0" stopTime="0.00" timeLoss="2.99" rerouteNo="0" devices="tripinfo_186" vType="DEFAULT_VEHTYPE" speedFactor="0.87" vaporized=""/>
    <tripinfo id="190" depart="32.00" departLane="168_4way_87to4way_77_0" departPos="5.10" departSpeed="0.00" departDelay="0.35" arrival="50.00" arrivalLane="165_4way_77to4way_76_0" arrivalPos="85.60" arrivalSpeed="13.80" duration="18.00" routeLength="175.13" waitingTime="0.00" waitingCount="0" stopTime="0.00" timeLoss="5.61" rerouteNo="0" devices="tripinfo_190" vType="DEFAULT_VEHTYPE" speedFactor="1.08" vaporized=""/>
    <tripinfo id="268" depart="46.00" departLane="72_4way_14to4way_24_0" departPos="5.10" departSpeed="0.00" departDelay="1.35" arrival="55.00" arrivalLane="72_4way_14to4way_24_0" arrivalPos="85.60" arrivalSpeed="16.95" duration="9.00" routeLength="80.50" waitingTime="0.00" waitingCount="0" stopTime="0.00" timeLoss="3.65" rerouteNo="0" devices="tripinfo_268" vType="DEFAULT_VEHTYPE" speedFactor="1.22" vaporized=""/>
    <tripinfo id="221" depart="37.00" departLane="167_4way_77to4way_78_0" departPos="5.10" departSpeed="0.00" departDelay="0.18" arrival="58.00" arrivalLane="154_4way_78to4way_68_0" arrivalPos="85.60" arrivalSpeed="11.59" duration="21.00" routeLength="175.13" waitingTime="0.00" waitingCount="0" stopTime="0.00" timeLoss="5.79" rerouteNo="0" devices="tripinfo_221" vType="DEFAULT_VEHTYPE" speedFactor="0.90" vaporized=""/>
    <tripinfo id="201" depart="34.00" departLane="22_3way_4to4way_14_0" departPos="5.10" departSpeed="0.00" departDelay="0.51" arrival="61.00" arrivalLane="87_4way_24to4way_34_0" arrivalPos="85.60" arrivalSpeed="12.72" duration="27.00" routeLength="280.50" waitingTime="0.00" waitingCount="0" stopTime="0.00" timeLoss="4.53" rerouteNo="0" devices="tripinfo_201" vType="DEFAULT_VEHTYPE" speedFactor="0.93" vaporized=""/>
    <tripinfo id="309" depart="52.00" departLane="152_4way_67to4way_68_0" departPos="5.10" departSpeed="0.00" departDelay="0.52" arrival="61.00" arrivalLane="152_4way_67to4way_68_0" arrivalPos="85.60" arrivalSpeed="15.27" duration="9.00" routeLength="80.50" waitingTime="0.00" waitingCount="0" stopTime="0.00" timeLoss="3.68" rerouteNo="0" devices="tripinfo_309" vType="DEFAULT_VEHTYPE" speedFactor="1.12" vaporized=""/>
    <tripinfo id="315" depart="53.00" departLane="19_3way_39to3way_49_0" departPos="5.10" departSpeed="0.00" departDelay="0.52" arrival="63.00" arrivalLane="19_3way_39to3way_49_0" arrivalPos="85.60" arrivalSpeed="11.67" duration="10.00" routeLength="80.50" waitingTime="0.00" waitingCount="0" stopTime="0.00" timeLoss="3.56" rerouteNo="0" devices="tripinfo_315" vType="DEFAULT_VEHTYPE" speedFactor="0.93" vaporized=""/>
    <tripinfo id="254" depart="43.00" departLane="119_4way_55to4way_45_0" departPos="5.10" departSpeed="0.00" departDelay="0.68" arrival="64.00" arrivalLane="116_4way_45to4way_44_0" arrivalPos="85.60" arrivalSpeed="11.51" duration="21.00" routeLength="175.13" waitingTime="0.00" waitingCount="0" stopTime="0.00" timeLoss="5.70" rerouteNo="0" devices="tripinfo_254" vType="DEFAULT_VEHTYPE" speedFactor="0.90" vaporized=""/>
    <tripinfo id="273" depart="46.00" departLane="82_4way_23to4way_22_0" departPos="5.10" departSpeed="0.00" departDelay="0.52" arrival="65.00" arrivalLane="83_4way_22to4way_32_0" arrivalPos="85.60" arrivalSpeed="13.29" duration="19.00" routeLength="175.13" waitingTime="0.00" waitingCount="0" stopTime="0.00" timeLoss="5.63" rerouteNo="0" devices="tripinfo_273" vType="DEFAULT_VEHTYPE" speedFactor="1.04" vaporized=""/>
    <tripinfo id="41" depart="7.00" departLane="42_3way_70to4way_71_0" departPos="5.10" departSpeed="0.00" departDelay="0.17" arrival="70.00" arrivalLane="157_4way_72to4way_73_0" arrivalPos="85.60" arrivalSpeed="5.24" duration="63.00" routeLength="280.50" waitingTime="36.00" waitingCount="1" stopTime="0.00" timeLoss="44.92" rerouteNo="0" devices="tripinfo_41" vType="DEFAULT_VEHTYPE" speedFactor="1.12" vaporized=""/>
    <tripinfo id="115" depart="20.00" departLane="16_3way_3to4way_13_0" departPos="5.10" departSpeed="0.00" departDelay="0.84" arrival="70.00" arrivalLane="70_4way_13to4way_23_0" arrivalPos="85.60" arrivalSpeed="5.58" duration="50.00" routeLength="180.50" waitingTime="28.00" waitingCount="1" stopTime="0.00" timeLoss="35.73" rerouteNo="0" devices="tripinfo_115" vType="DEFAULT_VEHTYPE" speedFactor="0.92" vaporized=""/>
    <tripinfo id="155" depart="26.00" departLane="7_3way_19to3way_8_0" departPos="5.10" departSpeed="0.00" departDelay="0.18" arrival="70.00" arrivalLane="7_3way_19to3way_8_0" arrivalPos="182.40" arrivalSpeed="5.52" duration="44.00" routeLength="177.30" waitingTime="23.00" waitingCount="1" stopTime="0.00" timeLoss="30.28" rerouteNo="0" devices="tripinfo_155" vType="DEFAULT_VEHTYPE" speedFactor="0.94" vaporized=""/>
    <tripinfo id="88" depart="15.00" departLane="22_3way_4to4way_14_0" departPos="5.10" departSpeed="0.00" departDelay="0.34" arrival="71.00" arrivalLane="116_4way_44to4way_45_0" arrivalPos="85.60" arrivalSpeed="5.88" duration="56.00" routeLength="475.13" waitingTime="12.00" waitingCount="1" stopTime="0.00" timeLoss="22.92" rerouteNo="0" devices="tripinfo_88" vType="DEFAULT_VEHTYPE" speedFactor="1.06" vaporized=""/>
    <tripinfo id="174" depart="29.00" departLane="67_4way_13to4way_12_0" departPos="5.10" departSpeed="0.00" departDelay="0.01" arrival="72.00" arrivalLane="68_4way_12to4way_22_0" arrivalPos="85.60" arrivalSpeed="8.36" duration="43.00" routeLength="175.13" waitingTime="19.00" waitingCount="1" stopTime="0.00" timeLoss="28.81" rerouteNo="0" devices="tripinfo_174" vType="DEFAULT_VEHTYPE" speedFactor="0.94" vaporized=""/>
    <tripinfo id="275" depart="46.00" departLane="51_4way_81to3way_91_0" departPos="5.10" departSpeed="0.00" departDelay="0.18" arrival="72.00" arrivalLane="52_3way_92to3way_93_0" arrivalPos="85.60" arrivalSpeed="13.68" duration="26.00" routeLength="275.13" waitingTime="0.00" waitingCount="0" stopTime="0.00" timeLoss="5.26" rerouteNo="0" devices="tripinfo_275" vType="DEFAULT_VEHTYPE" speedFactor="1.02" vaporized=""/>
    <tripinfo id="333" depart="56.00" departLane="161_4way_74to4way_75_0" departPos="5.10" departSpeed="0.00" departDelay="0.52" arrival="72.00" arrivalLane="163_4way_75to4way_76_0" arrivalPos="85.60" arrivalSpeed="14.98" duration="16.00" routeLength="180.50" waitingTime="0.00" waitingCount="0" stopTime="0.00" timeLoss="4.04" rerouteNo="0" devices="tripinfo_333" vType="DEFAULT_VEHTYPE" speedFactor="1.14" vaporized=""/>
    <tripinfo id="218" depart="37.00" departLane="28_3way_5to4way_15_0" departPos="5.10" departSpeed="0.00" departDelay="0.68" arrival="73.00" arrivalLane="77_4way_17to4way_18_0" arrivalPos="85.60" arrivalSpeed="12.56" duration="36.00" routeLength="375.13" waitingTime="0.00" waitingCount="0" stopTime="0.00" timeLoss="6.84" rerouteNo="0" devices="tripinfo_218" vType="DEFAULT_VEHTYPE" speedFactor="0.96" vaporized=""/>
    <tripinfo id="271" depart="47.00" departLane="65_4way_11to4way_12_0" departPos="5.10" departSpeed="0.00" departDelay="1.85" arrival="73.00" arrivalLane="67_4way_12to4way_13_0" arrivalPos="85.60" arrivalSpeed="7.24" duration="26.00" routeLength="180.50" waitingTime="2.00" waitingCount="1" stopTime="0.00" timeLoss="11.40" rerouteNo="0" devices="tripinfo_271" vType="DEFAULT_VEHTYPE" speedFactor="0.90" vaporized=""/>
    <tripinfo id="290" depart="49.00" departLane="27_3way_6to3way_5_0" departPos="5.10" departSpeed="0.00" departDelay="0.69" arrival="75.00" arrivalLane="21_3way_5to3way_4_0" arrivalPos="85.60" arrivalSpeed="10.04" duration="26.00" routeLength="180.50" waitingTime="4.00" waitingCount="1" stopTime="0.00" timeLoss="14.06" rerouteNo="0" devices="tripinfo_290" vType="DEFAULT_VEHTYPE" speedFactor="1.14" vaporized=""/>
    <tripinfo id="347" depart="58.00" departLane="7_3way_19to3way_8_0" departPos="5.10" departSpeed="0.00" departDelay="0.19" arrival="75.00" arrivalLane="7_3way_19to3way_8_0" arrivalPos="182.40" arrivalSpeed="13.63" duration="17.00" routeLength="177.30" waitingTime="0.00" waitingCount="0" stopTime="0.00" timeLoss="3.54" rerouteNo="0" devices="tripinfo_347" vType="DEFAULT_VEHTYPE" speedFactor="1.01" vaporized=""/>
    <tripinfo id="10" depart="2.00" departLane="136_4way_56to4way_66_0" departPos="5.10" departSpeed="0.00" departDelay="0.33" arrival="77.00" arrivalLane="152_4way_67to4way_68_0" arrivalPos="85.60" arrivalSpeed="13.45" duration="75.00" routeLength="275.13" waitingTime="43.00" waitingCount="1" stopTime="0.00" timeLoss="55.37" rerouteNo="0" devices="tripinfo_10" vType="DEFAULT_VEHTYPE" speedFactor="1.04" vaporized=""/>
    <tripinfo id="16" depart="3.00" departLane="145_4way_73to4way_63_0" departPos="5.10" departSpeed="0.00" departDelay="0.33" arrival="77.00" arrivalLane="112_4way_43to4way_42_0" arrivalPos="85.60" arrivalSpeed="11.60" duration="74.00" routeLength="375.13" waitingTime="36.00" waitingCount="1" stopTime="0.00" timeLoss="43.35" rerouteNo="0" devices="tripinfo_16" vType="DEFAULT_VEHTYPE" speedFactor="0.90" vaporized=""/>
    <tripinfo id="17" depart="3.00" departLane="102_4way_44to4way_34_0" departPos="5.10" departSpeed="0.00" departDelay="0.17" arrival="77.00" arrivalLane="9_3way_3to3way_2_0" arrivalPos="85.60" arrivalSpeed="13.95" duration="74.00" routeLength="575.13" waitingTime="21.00" waitingCount="1" stopTime="0.00" timeLoss="33.08" rerouteNo="0" devices="tripinfo_17" vType="DEFAULT_VEHTYPE" speedFactor="1.04" vaporized=""/>
    <tripinfo id="33" depart="6.00" departLane="6_3way_29to3way_19_0" departPos="5.10" departSpeed="0.00" departDelay="0.50" arrival="77.00" arrivalLane="77_4way_18to4way_17_0" arrivalPos="85.60" arrivalSpeed="13.98" duration="71.00" routeLength="275.13" waitingTime="39.00" waitingCount="1" stopTime="0.00" timeLoss="51.60" rerouteNo="0" devices="tripinfo_33" vType="DEFAULT_VEHTYPE" speedFactor="1.06" vaporized=""/>
    <tripinfo id="45" depart="8.00" departLane="133_4way_55to4way_56_0" departPos="5.10" departSpeed="0.00" departDelay="0.50" arrival="77.00" arrivalLane="32_4way_58to3way_59_0" arrivalPos="85.60" arrivalSpeed="12.99" duration="69.00" routeLength="380.50" waitingTime="33.00" waitingCount="1" stopTime="0.00" timeLoss="41.51" rerouteNo="0" devices="tripinfo_45" vType="DEFAULT_VEHTYPE" speedFactor="1.00" vaporized=""/>
    <tripinfo id="50" depart="9.00" departLane="137_4way_58to4way_57_0" departPos="5.10" departSpeed="0.00" departDelay="0.67" arrival="77.00" arrivalLane="149_4way_65to4way_75_0" arrivalPos="85.60" arrivalSpeed="13.31" duration="68.00" routeLength="475.13" waitingTime="22.00" waitingCount="1" stopTime="0.00" timeLoss="33.24" rerouteNo="0" devices="tripinfo_50" vType="DEFAULT_VEHTYPE" speedFactor="1.01" vaporized=""/>
    <tripinfo id="67" depart="12.00" departLane="159_4way_74to4way_73_0" departPos="5.10" departSpeed="0.00" departDelay="0.84" arrival="77.00" arrivalLane="160_4way_73to4way_83_0" arrivalPos="85.60" arrivalSpeed="11.01" duration="65.00" routeLength="175.13" waitingTime="42.00" waitingCount="1" stopTime="0.00" timeLoss="50.13" rerouteNo="0" devices="tripinfo_67" vType="DEFAULT_VEHTYPE" speedFactor="0.88" vaporized=""/>
    <tripinfo id="117" depart="20.00" departLane="113_4way_52to4way_42_0" departPos="5.10" departSpeed="0.00" departDelay="0.51" arrival="77.00" arrivalLane="110_4way_42to4way_41_0" arrivalPos="85.60" arrivalSpeed="12.03" duration="57.00" routeLength="175.13" waitingTime="35.00" waitingCount="1" stopTime="0.00" timeLoss="42.11" rerouteNo="0" devices="tripinfo_117" vType="DEFAULT_VEHTYPE" speedFactor="0.91" vaporized=""/>
    <tripinfo id="178" depart="30.00" departLane="168_4way_77to4way_87_0" departPos="5.10" departSpeed="0.00" departDelay="0.34" arrival="77.00" arrivalLane="63_4way_87to3way_97_0" arrivalPos="85.60" arrivalSpeed="13.87" duration="47.00" routeLength="180.50" waitingTime="24.00" waitingCount="1" stopTime="0.00" timeLoss="34.74" rerouteNo="0" devices="tripinfo_178" vType="DEFAULT_VEHTYPE" speedFactor="1.07" vaporized=""/>
    <tripinfo id="202" depart="34.00" departLane="68_4way_22to4way_12_0" departPos="5.10" departSpeed="0.00" departDelay="0.35" arrival="77.00" arrivalLane="10_4way_12to3way_2_0" arrivalPos="85.60" arrivalSpeed="12.47" duration="43.00" routeLength="180.50" waitingTime="21.00" waitingCount="1" stopTime="0.00" timeLoss="28.21" rerouteNo="0" devices="tripinfo_202" vType="DEFAULT_VEHTYPE" speedFactor="0.90" vaporized=""/>
    <tripinfo id="227" depart="38.00" departLane="30_4way_51to3way_50_0" departPos="5.10" departSpeed="0.00" departDelay="0.18" arrival="77.00" arrivalLane="29_3way_50to3way_60_0" arrivalPos="85.60" arrivalSpeed="13.82" duration="39.00" routeLength="175.13" waitingTime="18.00" waitingCount="1" stopTime="0.00" timeLoss="25.12" rerouteNo="0" devices="tripinfo_227" vType="DEFAULT_VEHTYPE" speedFactor="1.00" vaporized=""/>
    <tripinfo id="313" depart="53.00" departLane="85_4way_33to4way_23_0" departPos="5.10" departSpeed="0.00" departDelay="0.85" arrival="77.00" arrivalLane="82_4way_23to4way_22_0" arrivalPos="85.60" arrivalSpeed="12.32" duration="24.00" routeLength="175.13" waitingTime="0.00" waitingCount="0" stopTime="0.00" timeLoss="9.35" rerouteNo="0" devices="tripinfo_313" vType="DEFAULT_VEHTYPE" speedFactor="0.90" vaporized=""/>
    <tripinfo id="322" depart="54.00" departLane="171_4way_83to4way_82_0" departPos="5.10" departSpeed="0.00" departDelay="0.35" arrival="77.00" arrivalLane="171_4way_83to4way_82_0" arrivalPos="85.60" arrivalSpeed="7.89" duration="23.00" routeLength="80.50" waitingTime="5.00" waitingCount="1" stopTime="0.00" timeLoss="17.55" rerouteNo="0" devices="tripinfo_322" vType="DEFAULT_VEHTYPE" speedFactor="1.08" vaporized=""/>
    <tripinfo id="21" depart="4.00" departLane="27_3way_6to3way_5_0" departPos="5.10" departSpeed="0.00" departDelay="0.50" arrival="78.00" arrivalLane="89_4way_25to4way_35_0" arrivalPos="85.60" arrivalSpeed="10.40" duration="74.00" routeLength="375.13" waitingTime="27.00" waitingCount="1" stopTime="0.00" timeLoss="39.66" rerouteNo="0" devices="tripinfo_21" vType="DEFAULT_VEHTYPE" speedFactor="0.82" vaporized=""/>
    <tripinfo id="220" depart="37.00" departLane="167_4way_78to4way_77_0" departPos="5.10" departSpeed="0.00" departDelay="0.35" arrival="78.00" arrivalLane="165_4way_77to4way_76_0" arrivalPos="85.60" arrivalSpeed="12.07" duration="41.00" routeLength="180.50" waitingTime="17.00" waitingCount="1" stopTime="0.00" timeLoss="26.10" rerouteNo="0" devices="tripinfo_220" vType="DEFAULT_VEHTYPE" speedFactor="0.92" vaporized=""/>
    <tripinfo id="207" depart="35.00" departLane="169_4way_88to4way_78_0" departPos="5.10" departSpeed="0.00" departDelay="0.51" arrival="79.00" arrivalLane="154_4way_78to4way_68_0" arrivalPos="85.60" arrivalSpeed="17.21" duration="44.00" routeLength="180.50" waitingTime="21.00" waitingCount="1" stopTime="0.00" timeLoss="32.56" rerouteNo="0" devices="tripinfo_207" vType="DEFAULT_VEHTYPE" speedFactor="1.24" vaporized=""/>
    <tripinfo id="191" depart="32.00" departLane="43_3way_89to3way_79_0" departPos="5.10" departSpeed="0.00" departDelay="0.18" arrival="80.00" arrivalLane="165_4way_77to4way_76_0" arrivalPos="85.60" arrivalSpeed="11.99" duration="48.00" routeLength="375.13" waitingTime="5.00" waitingCount="1" stopTime="0.00" timeLoss="18.19" rerouteNo="0" devices="tripinfo_191" vType="DEFAULT_VEHTYPE" speedFactor="0.94" vaporized=""/>
    <tripinfo id="247" depart="42.00" departLane="96_4way_41to4way_31_0" departPos="5.10" departSpeed="0.00" departDelay="0.85" arrival="80.00" arrivalLane="18_4way_31to3way_30_0" arrivalPos="85.60" arrivalSpeed="13.73" duration="38.00" routeLength="175.13" waitingTime="14.00" waitingCount="1" stopTime="0.00" timeLoss="24.88" rerouteNo="0" devices="tripinfo_247" vType="DEFAULT_VEHTYPE" speedFactor="1.07" vaporized=""/>
    <tripinfo id="262" depart="44.00" departLane="65_4way_11to4way_12_0" departPos="5.10" departSpeed="0.00" departDelay="0.35" arrival="80.00" arrivalLane="16_4way_13to3way_3_0" arrivalPos="85.60" arrivalSpeed="12.84" duration="36.00" routeLength="275.13" waitingTime="3.00" waitingCount="1" stopTime="0.00" timeLoss="14.25" rerouteNo="0" devices="tripinfo_262" vType="DEFAULT_VEHTYPE" speedFactor="0.93" vaporized=""/>
    <tripinfo id="317" depart="55.00" departLane="92_4way_28to4way_27_0" departPos="5.10" departSpeed="0.00" departDelay="2.19" arrival="80.00" arrivalLane="92_4way_28to4way_27_0" arrivalPos="85.60" arrivalSpeed="12.67" duration="25.00" routeLength="80.50" waitingTime="9.00" waitingCount="1" stopTime="0.00" timeLoss="19.78" rerouteNo="0" devices="tripinfo_317" vType="DEFAULT_VEHTYPE" speedFactor="1.11" vaporized=""/>
    <tripinfo id="354" depart="59.00" departLane="85_4way_33to4way_23_0" departPos="5.10" departSpeed="0.00" departDelay="0.02" arrival="80.00" arrivalLane="82_4way_23to4way_22_0" arrivalPos="85.60" arrivalSpeed="11.94" duration="21.00" routeLength="175.13" waitingTime="0.00" waitingCount="0" stopTime="0.00" timeLoss="5.85" rerouteNo="0" devices="tripinfo_354" vType="DEFAULT_VEHTYPE" speedFactor="0.91" vaporized=""/>
    <tripinfo id="7" depart="2.00" departLane="7_3way_19to3way_8_0" departPos="5.10" departSpeed="0.00" departDelay="0.83" arrival="83.00" arrivalLane="39_3way_8to3way_7_0" arrivalPos="85.60" arrivalSpeed="6.31" duration="81.00" routeLength="277.30" waitingTime="46.00" waitingCount="2" stopTime="0.00" timeLoss="59.55" rerouteNo="0" devices="tripinfo_7" vType="DEFAULT_VEHTYPE" speedFactor="0.95" vaporized=""/>
    <tripinfo id="28" depart="5.00" departLane="50_3way_91to3way_92_0" departPos="5.10" departSpeed="0.00" departDelay="0.33" arrival="84.00" arrivalLane="128_4way_62to4way_52_0" arrivalPos="85.60" arrivalSpeed="13.63" duration="79.00" routeLength="475.13" waitingTime="33.00" waitingCount="1" stopTime="0.00" timeLoss="44.50" rerouteNo="0" devices="tripinfo_28" vType="DEFAULT_VEHTYPE" speedFactor="1.03" vaporized=""/>
    <tripinfo id="107" depart="18.00" departLane="111_4way_51to4way_41_0" departPos="5.10" departSpeed="0.00" departDelay="0.17" arrival="85.00" arrivalLane="12_4way_21to3way_20_0" arrivalPos="85.60" arrivalSpeed="14.17" duration="67.00" routeLength="375.13" waitingTime="31.00" waitingCount="1" stopTime="0.00" timeLoss="41.53" rerouteNo="0" devices="tripinfo_107" vType="DEFAULT_VEHTYPE" speedFactor="1.10" vaporized=""/>
    <tripinfo id="398" depart="67.00" departLane="134_4way_55to4way_65_0" departPos="5.10" departSpeed="0.00" departDelay="0.69" arrival="85.00" arrivalLane="148_4way_65to4way_66_0" arrivalPos="85.60" arrivalSpeed="13.81" duration="18.00" routeLength="175.13" waitingTime="0.00" waitingCount="0" stopTime="0.00" timeLoss="5.32" rerouteNo="0" devices="tripinfo_398" vType="DEFAULT_VEHTYPE" speedFactor="1.06" vaporized=""/>
    <tripinfo id="245" depart="41.00" departLane="155_4way_71to4way_72_0" departPos="5.10" departSpeed="0.00" departDelay="0.18" arrival="86.00" arrivalLane="113_4way_52to4way_42_0" arrivalPos="85.60" arrivalSpeed="14.65" duration="45.00" routeLength="375.13" waitingTime="7.00" waitingCount="1" stopTime="0.00" timeLoss="20.82" rerouteNo="0" devices="tripinfo_245" vType="DEFAULT_VEHTYPE" speedFactor="1.15" vaporized=""/>
    <tripinfo id="47" depart="8.00" departLane="10_3way_2to4way_12_0" departPos="5.10" departSpeed="0.00" departDelay="0.17" arrival="87.00" arrivalLane="69_4way_13to4way_14_0" arrivalPos="85.60" arrivalSpeed="11.95" duration="79.00" routeLength="275.13" waitingTime="46.00" waitingCount="1" stopTime="0.00" timeLoss="55.29" rerouteNo="0" devices="tripinfo_47" vType="DEFAULT_VEHTYPE" speedFactor="0.90" vaporized=""/>
    <tripinfo id="71" depart="12.00" departLane="119_4way_45to4way_55_0" departPos="5.10" departSpeed="0.00" departDelay="0.17" arrival="87.00" arrivalLane="148_4way_65to4way_66_0" arrivalPos="85.60" arrivalSpeed="15.01" duration="75.00" routeLength="275.13" waitingTime="41.00" waitingCount="1" stopTime="0.00" timeLoss="56.74" rerouteNo="0" devices="tripinfo_71" vType="DEFAULT_VEHTYPE" speedFactor="1.13" vaporized=""/>
    <tripinfo id="97" depart="17.00" departLane="46_3way_80to3way_91_0" departPos="5.10" departSpeed="0.00" departDelay="0.84" arrival="87.00" arrivalLane="52_3way_92to3way_93_0" arrivalPos="85.60" arrivalSpeed="11.34" duration="70.00" routeLength="377.30" waitingTime="31.00" waitingCount="1" stopTime="0.00" timeLoss="43.54" rerouteNo="0" devices="tripinfo_97" vType="DEFAULT_VEHTYPE" speedFactor="1.06" vaporized=""/>
    <tripinfo id="109" depart="19.00" departLane="120_4way_47to4way_46_0" departPos="5.10" departSpeed="0.00" departDelay="0.84" arrival="88.00" arrivalLane="117_4way_44to4way_54_0" arrivalPos="85.60" arrivalSpeed="14.37" duration="69.00" routeLength="375.13" waitingTime="28.00" waitingCount="1" stopTime="0.00" timeLoss="42.07" rerouteNo="0" devices="tripinfo_109" vType="DEFAULT_VEHTYPE" speedFactor="1.04" vaporized=""/>
    <tripinfo id="204" depart="34.00" departLane="46_3way_80to3way_91_0" departPos="5.10" departSpeed="0.00" departDelay="0.01" arrival="88.00" arrivalLane="52_3way_92to3way_93_0" arrivalPos="85.60" arrivalSpeed="11.43" duration="54.00" routeLength="377.30" waitingTime="16.00" waitingCount="1" stopTime="0.00" timeLoss="29.56" rerouteNo="0" devices="tripinfo_204" vType="DEFAULT_VEHTYPE" speedFactor="1.12" vaporized=""/>
    <tripinfo id="303" depart="51.00" departLane="32_3way_59to4way_58_0" departPos="5.10" departSpeed="0.00" departDelay="0.52" arrival="88.00" arrivalLane="139_4way_58to4way_68_0" arrivalPos="85.60" arrivalSpeed="3.73" duration="37.00" routeLength="175.13" waitingTime="8.00" waitingCount="1" stopTime="0.00" timeLoss="24.00" rerouteNo="0" devices="tripinfo_303" vType="DEFAULT_VEHTYPE" speedFactor="1.02" vaporized=""/>
    <tripinfo id="80" depart="14.00" departLane="120_4way_47to4way_46_0" departPos="5.10" departSpeed="0.00" departDelay="0.67" arrival="89.00" arrivalLane="134_4way_55to4way_65_0" arrivalPos="85.60" arrivalSpeed="10.21" duration="75.00" routeLength="375.13" waitingTime="29.00" waitingCount="1" stopTime="0.00" timeLoss="38.55" rerouteNo="0" devices="tripinfo_80" vType="DEFAULT_VEHTYPE" speedFactor="0.78" vaporized=""/>
    <tripinfo id="106" depart="18.00" departLane="34_4way_16to3way_6_0" departPos="5.10" departSpeed="0.00" departDelay="0.34" arrival="90.00" arrivalLane="9_3way_3to3way_2_0" arrivalPos="85.60" arrivalSpeed="9.07" duration="72.00" routeLength="475.13" waitingTime="25.00" waitingCount="1" stopTime="0.00" timeLoss="41.32" rerouteNo="0" devices="tripinfo_106" vType="DEFAULT_VEHTYPE" speedFactor="1.16" vaporized=""/>
    <tripinfo id="282" depart="47.00" departLane="22_3way_4to4way_14_0" departPos="5.10" departSpeed="0.00" departDelay="0.02" arrival="90.00" arrivalLane="77_4way_17to4way_18_0" arrivalPos="85.60" arrivalSpeed="14.01" duration="43.00" routeLength="475.13" waitingTime="0.00" waitingCount="0" stopTime="0.00" timeLoss="8.70" rerouteNo="0" devices="tripinfo_282" vType="DEFAULT_VEHTYPE" speedFactor="1.02" vaporized=""/>