<?xml version="1.0" encoding="UTF-8"?>

<!-- generated on 2023-07-27 01:19:20 by Eclipse SUMO sumo Version 1.12.0
<configuration xmlns:xsi="http://www.w3.org/2001/XMLSchema-instance" xsi:noNamespaceSchemaLocation="http://sumo.dlr.de/xsd/sumoConfiguration.xsd">

    <input>
        <net-file value="../../data_generation/sq.net.xml"/>
        <route-files value="../../data_generation/sq.rou.xml"/>
    </input>

    <output>
        <tripinfo-output value="tripinfo.xml"/>
        <statistic-output value="statistic.xml"/>
    </output>

    <time>
        <begin value="0"/>
        <end value="3600"/>
    </time>

    <processing>
        <time-to-teleport value="-1"/>
    </processing>

    <traci_server>
        <remote-port value="58695"/>
    </traci_server>

    <random_number>
        <seed value="1395"/>
    </random_number>

    <gui_only>
        <gui-settings-file value="../../data_generation/view_HY_0402.xml"/>
    </gui_only>

</configuration>
-->

<tripinfos xmlns:xsi="http://www.w3.org/2001/XMLSchema-instance" xsi:noNamespaceSchemaLocation="http://sumo.dlr.de/xsd/tripinfo_file.xsd">
    <tripinfo id="0" depart="0.00" departLane="131_4way_55to4way_54_0" departPos="5.10" departSpeed="0.00" departDelay="0.00" arrival="17.00" arrivalLane="129_4way_54to4way_53_0" arrivalPos="85.60" arrivalSpeed="13.38" duration="17.00" routeLength="180.50" waitingTime="0.00" waitingCount="0" stopTime="0.00" timeLoss="4.00" rerouteNo="0" devices="tripinfo_0" vType="DEFAULT_VEHTYPE" speedFactor="1.00" vaporized=""/>
    <tripinfo id="1" depart="2.00" departLane="129_4way_53to4way_54_0" departPos="5.10" departSpeed="0.00" departDelay="0.00" arrival="34.00" arrivalLane="87_4way_34to4way_24_0" arrivalPos="85.60" arrivalSpeed="14.17" duration="32.00" routeLength="375.13" waitingTime="0.00" waitingCount="0" stopTime="0.00" timeLoss="5.42" rerouteNo="0" devices="tripinfo_1" vType="DEFAULT_VEHTYPE" speedFactor="1.04" vaporized=""/>
    <tripinfo id="9" depart="18.00" departLane="108_4way_47to4way_37_0" departPos="5.10" departSpeed="0.00" departDelay="0.00" arrival="38.00" arrivalLane="105_4way_37to4way_36_0" arrivalPos="85.60" arrivalSpeed="12.41" duration="20.00" routeLength="175.13" waitingTime="0.00" waitingCount="0" stopTime="0.00" timeLoss="5.43" rerouteNo="0" devices="tripinfo_9" vType="DEFAULT_VEHTYPE" speedFactor="0.91" vaporized=""/>
    <tripinfo id="7" depart="14.00" departLane="7_3way_19to3way_8_0" departPos="5.10" departSpeed="0.00" departDelay="0.00" arrival="39.00" arrivalLane="39_3way_8to3way_7_0" arrivalPos="85.60" arrivalSpeed="13.03" duration="25.00" routeLength="277.30" waitingTime="0.00" waitingCount="0" stopTime="0.00" timeLoss="3.53" rerouteNo="0" devices="tripinfo_7" vType="DEFAULT_VEHTYPE" speedFactor="0.95" vaporized=""/>
    <tripinfo id="18" depart="37.00" departLane="102_4way_44to4way_34_0" departPos="5.10" departSpeed="0.00" departDelay="1.00" arrival="47.00" arrivalLane="102_4way_44to4way_34_0" arrivalPos="85.60" arrivalSpeed="12.50" duration="10.00" routeLength="80.50" waitingTime="0.00" waitingCount="0" stopTime="0.00" timeLoss="3.00" rerouteNo="0" devices="tripinfo_18" vType="DEFAULT_VEHTYPE" speedFactor="0.96" vaporized=""/>
    <tripinfo id="23" depart="46.00" departLane="81_4way_31to4way_21_0" departPos="5.10" departSpeed="0.00" departDelay="0.00" arrival="66.00" arrivalLane="12_4way_21to3way_20_0" arrivalPos="85.60" arrivalSpeed="12.15" duration="20.00" routeLength="175.13" waitingTime="0.00" waitingCount="0" stopTime="0.00" timeLoss="5.13" rerouteNo="0" devices="tripinfo_23" vType="DEFAULT_VEHTYPE" speedFactor="0.87" vaporized=""/>
    <tripinfo id="5" depart="10.00" departLane="100_4way_33to4way_43_0" departPos="5.10" departSpeed="0.00" departDelay="0.00" arrival="77.00" arrivalLane="133_4way_55to4way_56_0" arrivalPos="85.60" arrivalSpeed="12.46" duration="67.00" routeLength="475.13" waitingTime="18.00" waitingCount="1" stopTime="0.00" timeLoss="29.85" rerouteNo="0" devices="tripinfo_5" vType="DEFAULT_VEHTYPE" speedFactor="0.94" vaporized=""/>
    <tripinfo id="10" depart="20.00" departLane="136_4way_56to4way_66_0" departPos="5.10" departSpeed="0.00" departDelay="0.00" arrival="77.00" arrivalLane="152_4way_67to4way_68_0" arrivalPos="85.60" arrivalSpeed="13.57" duration="57.00" routeLength="275.13" waitingTime="25.00" waitingCount="1" stopTime="0.00" timeLoss="36.64" rerouteNo="0" devices="tripinfo_10" vType="DEFAULT_VEHTYPE" speedFactor="1.04" vaporized=""/>
    <tripinfo id="20" depart="40.00" departLane="80_4way_22to4way_21_0" departPos="5.10" departSpeed="0.00" departDelay="0.00" arrival="77.00" arrivalLane="81_4way_21to4way_31_0" arrivalPos="85.60" arrivalSpeed="11.81" duration="37.00" routeLength="175.13" waitingTime="15.00" waitingCount="1" stopTime="0.00" timeLoss="21.91" rerouteNo="0" devices="tripinfo_20" vType="DEFAULT_VEHTYPE" speedFactor="0.89" vaporized=""/>
    <tripinfo id="21" depart="42.00" departLane="27_3way_6to3way_5_0" departPos="5.10" departSpeed="0.00" departDelay="0.00" arrival="82.00" arrivalLane="89_4way_25to4way_35_0" arrivalPos="85.60" arrivalSpeed="10.62" duration="40.00" routeLength="375.13" waitingTime="0.00" waitingCount="0" stopTime="0.00" timeLoss="6.24" rerouteNo="0" devices="tripinfo_21" vType="DEFAULT_VEHTYPE" speedFactor="0.82" vaporized=""/>
    <tripinfo id="17" depart="34.00" departLane="102_4way_44to4way_34_0" departPos="5.10" departSpeed="0.00" departDelay="0.00" arrival="83.00" arrivalLane="9_3way_3to3way_2_0" arrivalPos="85.60" arrivalSpeed="13.30" duration="49.00" routeLength="575.13" waitingTime="0.00" waitingCount="0" stopTime="0.00" timeLoss="7.82" rerouteNo="0" devices="tripinfo_17" vType="DEFAULT_VEHTYPE" speedFactor="1.04" vaporized=""/>
    <tripinfo id="13" depart="26.00" departLane="20_4way_38to3way_39_0" departPos="5.10" departSpeed="0.00" departDelay="0.00" arrival="93.00" arrivalLane="31_3way_59to3way_69_0" arrivalPos="85.60" arrivalSpeed="13.28" duration="67.00" routeLength="380.29" waitingTime="28.00" waitingCount="1" stopTime="0.00" timeLoss="37.83" rerouteNo="0" devices="tripinfo_13" vType="DEFAULT_VEHTYPE" speedFactor="0.98" vaporized=""/>
    <tripinfo id="16" depart="32.00" departLane="157_4way_73to4way_72_0" departPos="5.10" departSpeed="0.00" departDelay="0.00" arrival="95.00" arrivalLane="113_4way_52to4way_42_0" arrivalPos="85.60" arrivalSpeed="11.93" duration="63.00" routeLength="380.30" waitingTime="23.00" waitingCount="1" stopTime="0.00" timeLoss="31.33" rerouteNo="0" devices="tripinfo_16" vType="DEFAULT_VEHTYPE" speedFactor="0.90" vaporized=""/>
    <tripinfo id="26" depart="52.00" departLane="48_3way_89to3way_98_0" departPos="5.10" departSpeed="0.00" departDelay="0.00" arrival="98.00" arrivalLane="56_3way_95to3way_94_0" arrivalPos="85.60" arrivalSpeed="13.09" duration="46.00" routeLength="583.70" waitingTime="0.00" waitingCount="0" stopTime="0.00" timeLoss="4.49" rerouteNo="0" devices="tripinfo_26" vType="DEFAULT_VEHTYPE" speedFactor="1.03" vaporized=""/>
    <tripinfo id="29" depart="58.00" departLane="19_3way_39to3way_49_0" departPos="5.10" departSpeed="0.00" departDelay="0.00" arrival="99.00" arrivalLane="43_3way_79to3way_89_0" arrivalPos="85.60" arrivalSpeed="12.38" duration="41.00" routeLength="480.50" waitingTime="0.00" waitingCount="0" stopTime="0.00" timeLoss="4.32" rerouteNo="0" devices="tripinfo_29" vType="DEFAULT_VEHTYPE" speedFactor="0.95" vaporized=""/>
    <tripinfo id="36" depart="72.00" departLane="22_3way_4to4way_14_0" departPos="5.10" departSpeed="0.00" departDelay="0.00" arrival="129.00" arrivalLane="161_4way_74to4way_75_0" arrivalPos="85.60" arrivalSpeed="15.14" duration="57.00" routeLength="775.13" waitingTime="0.00" waitingCount="0" stopTime="0.00" timeLoss="7.77" rerouteNo="0" devices="tripinfo_36" vType="DEFAULT_VEHTYPE" speedFactor="1.16" vaporized=""/>
    <tripinfo id="51" depart="102.00" departLane="171_4way_83to4way_82_0" departPos="5.10" departSpeed="0.00" departDelay="0.00" arrival="135.00" arrivalLane="51_4way_81to3way_91_0" arrivalPos="85.60" arrivalSpeed="10.16" duration="33.00" routeLength="275.13" waitingTime="0.00" waitingCount="0" stopTime="0.00" timeLoss="5.33" rerouteNo="0" devices="tripinfo_51" vType="DEFAULT_VEHTYPE" speedFactor="0.74" vaporized=""/>
    <tripinfo id="39" depart="78.00" departLane="156_4way_81to4way_71_0" departPos="5.10" departSpeed="0.00" departDelay="0.00" arrival="136.00" arrivalLane="12_4way_21to3way_20_0" arrivalPos="85.60" arrivalSpeed="14.24" duration="58.00" routeLength="675.13" waitingTime="0.00" waitingCount="0" stopTime="0.00" timeLoss="10.50" rerouteNo="0" devices="tripinfo_39" vType="DEFAULT_VEHTYPE" speedFactor="1.05" vaporized=""/>
    <tripinfo id="2" depart="4.00" departLane="147_4way_74to4way_64_0" departPos="5.10" departSpeed="0.00" departDelay="0.00" arrival="137.00" arrivalLane="67_4way_13to4way_12_0" arrivalPos="85.60" arrivalSpeed="14.35" duration="133.00" routeLength="775.13" waitingTime="58.00" waitingCount="2" stopTime="0.00" timeLoss="77.66" rerouteNo="0" devices="tripinfo_2" vType="DEFAULT_VEHTYPE" speedFactor="1.04" vaporized=""/>
    <tripinfo id="33" depart="66.00" departLane="6_3way_29to3way_19_0" departPos="5.10" departSpeed="0.00" departDelay="0.00" arrival="137.00" arrivalLane="77_4way_18to4way_17_0" arrivalPos="85.60" arrivalSpeed="13.90" duration="71.00" routeLength="275.13" waitingTime="39.00" waitingCount="1" stopTime="0.00" timeLoss="51.30" rerouteNo="0" devices="tripinfo_33" vType="DEFAULT_VEHTYPE" speedFactor="1.06" vaporized=""/>
    <tripinfo id="47" depart="94.00" departLane="10_3way_2to4way_12_0" departPos="5.10" departSpeed="0.00" departDelay="0.00" arrival="137.00" arrivalLane="69_4way_13to4way_14_0" arrivalPos="85.60" arrivalSpeed="11.90" duration="43.00" routeLength="275.13" waitingTime="9.00" waitingCount="1" stopTime="0.00" timeLoss="19.62" rerouteNo="0" devices="tripinfo_47" vType="DEFAULT_VEHTYPE" speedFactor="0.90" vaporized=""/>
    <tripinfo id="19" depart="38.00" departLane="89_4way_25to4way_35_0" departPos="5.10" departSpeed="0.00" departDelay="0.00" arrival="138.00" arrivalLane="107_4way_37to4way_38_0" arrivalPos="85.60" arrivalSpeed="12.00" duration="100.00" routeLength="375.13" waitingTime="52.00" waitingCount="2" stopTime="0.00" timeLoss="68.37" rerouteNo="0" devices="tripinfo_19" vType="DEFAULT_VEHTYPE" speedFactor="0.89" vaporized=""/>
    <tripinfo id="25" depart="50.00" departLane="14_3way_29to4way_28_0" departPos="5.10" departSpeed="0.00" departDelay="0.00" arrival="145.00" arrivalLane="154_4way_68to4way_78_0" arrivalPos="85.60" arrivalSpeed="12.79" duration="95.00" routeLength="575.13" waitingTime="36.00" waitingCount="2" stopTime="0.00" timeLoss="50.36" rerouteNo="0" devices="tripinfo_25" vType="DEFAULT_VEHTYPE" speedFactor="0.95" vaporized=""/>
    <tripinfo id="27" depart="54.00" departLane="47_3way_80to4way_81_0" departPos="5.10" departSpeed="0.00" departDelay="0.00" arrival="149.00" arrivalLane="162_4way_84to4way_74_0" arrivalPos="85.60" arrivalSpeed="13.17" duration="95.00" routeLength="475.13" waitingTime="41.00" waitingCount="1" stopTime="0.00" timeLoss="60.55" rerouteNo="0" devices="tripinfo_27" vType="DEFAULT_VEHTYPE" speedFactor="1.03" vaporized=""/>
    <tripinfo id="58" depart="116.00" departLane="104_4way_35to4way_45_0" departPos="5.10" departSpeed="0.00" departDelay="0.00" arrival="152.00" arrivalLane="135_4way_56to4way_57_0" arrivalPos="85.60" arrivalSpeed="11.94" duration="36.00" routeLength="375.13" waitingTime="0.00" waitingCount="0" stopTime="0.00" timeLoss="6.36" rerouteNo="0" devices="tripinfo_58" vType="DEFAULT_VEHTYPE" speedFactor="0.93" vaporized=""/>
    <tripinfo id="22" depart="44.00" departLane="32_3way_59to4way_58_0" departPos="5.10" departSpeed="0.00" departDelay="0.00" arrival="160.00" arrivalLane="56_3way_95to3way_94_0" arrivalPos="85.60" arrivalSpeed="12.98" duration="116.00" routeLength="874.92" waitingTime="35.00" waitingCount="2" stopTime="0.00" timeLoss="51.22" rerouteNo="0" devices="tripinfo_22" vType="DEFAULT_VEHTYPE" speedFactor="1.00" vaporized=""/>
    <tripinfo id="8" depart="16.00" departLane="166_4way_86to4way_76_0" departPos="5.10" departSpeed="0.00" departDelay="0.00" arrival="161.00" arrivalLane="9_3way_3to3way_2_0" arrivalPos="85.60" arrivalSpeed="12.95" duration="145.00" routeLength="1175.13" waitingTime="46.00" waitingCount="1" stopTime="0.00" timeLoss="57.06" rerouteNo="0" devices="tripinfo_8" vType="DEFAULT_VEHTYPE" speedFactor="0.98" vaporized=""/>
    <tripinfo id="46" depart="92.00" departLane="60_3way_97to3way_96_0" departPos="5.10" departSpeed="0.00" departDelay="0.00" arrival="175.00" arrivalLane="29_3way_60to3way_50_0" arrivalPos="85.60" arrivalSpeed="13.87" duration="83.00" routeLength="1083.70" waitingTime="0.00" waitingCount="0" stopTime="0.00" timeLoss="6.81" rerouteNo="0" devices="tripinfo_46" vType="DEFAULT_VEHTYPE" speedFactor="1.04" vaporized=""/>
    <tripinfo id="35" depart="70.00" departLane="102_4way_34to4way_44_0" departPos="5.10" departSpeed="0.00" departDelay="0.00" arrival="190.00" arrivalLane="152_4way_67to4way_68_0" arrivalPos="85.60" arrivalSpeed="4.72" duration="120.00" routeLength="675.13" waitingTime="49.00" waitingCount="2" stopTime="0.00" timeLoss="68.07" rerouteNo="0" devices="tripinfo_35" vType="DEFAULT_VEHTYPE" speedFactor="0.94" vaporized=""/>
    <tripinfo id="41" depart="82.00" departLane="42_3way_70to4way_71_0" departPos="5.10" departSpeed="0.00" departDelay="0.00" arrival="190.00" arrivalLane="157_4way_72to4way_73_0" arrivalPos="85.60" arrivalSpeed="5.62" duration="108.00" routeLength="280.50" waitingTime="73.00" waitingCount="2" stopTime="0.00" timeLoss="89.91" rerouteNo="0" devices="tripinfo_41" vType="DEFAULT_VEHTYPE" speedFactor="1.12" vaporized=""/>
    <tripinfo id="71" depart="142.00" departLane="119_4way_45to4way_55_0" departPos="5.10" departSpeed="0.00" departDelay="0.00" arrival="196.00" arrivalLane="148_4way_65to4way_66_0" arrivalPos="85.60" arrivalSpeed="15.13" duration="54.00" routeLength="275.13" waitingTime="25.00" waitingCount="1" stopTime="0.00" timeLoss="35.83" rerouteNo="0" devices="tripinfo_71" vType="DEFAULT_VEHTYPE" speedFactor="1.13" vaporized=""/>
    <tripinfo id="73" depart="146.00" departLane="169_4way_88to4way_78_0" departPos="5.10" departSpeed="0.00" departDelay="0.00" arrival="196.00" arrivalLane="133_4way_56to4way_55_0" arrivalPos="85.60" arrivalSpeed="13.24" duration="50.00" routeLength="575.13" waitingTime="0.00" waitingCount="0" stopTime="0.00" timeLoss="7.08" rerouteNo="0" devices="tripinfo_73" vType="DEFAULT_VEHTYPE" speedFactor="0.98" vaporized=""/>
    <tripinfo id="24" depart="48.00" departLane="98_4way_32to4way_42_0" departPos="5.10" departSpeed="0.00" departDelay="0.00" arrival="197.00" arrivalLane="157_4way_72to4way_73_0" arrivalPos="85.60" arrivalSpeed="12.35" duration="149.00" routeLength="475.13" waitingTime="102.00" waitingCount="1" stopTime="0.00" timeLoss="112.49" rerouteNo="0" devices="tripinfo_24" vType="DEFAULT_VEHTYPE" speedFactor="0.97" vaporized=""/>
    <tripinfo id="45" depart="90.00" departLane="133_4way_55to4way_56_0" departPos="5.10" departSpeed="0.00" departDelay="0.00" arrival="197.00" arrivalLane="32_4way_58to3way_59_0" arrivalPos="85.60" arrivalSpeed="13.25" duration="107.00" routeLength="380.50" waitingTime="64.00" waitingCount="2" stopTime="0.00" timeLoss="79.47" rerouteNo="0" devices="tripinfo_45" vType="DEFAULT_VEHTYPE" speedFactor="1.00" vaporized=""/>
    <tripinfo id="64" depart="128.00" departLane="83_4way_22to4way_32_0" departPos="5.10" departSpeed="0.00" departDelay="0.00" arrival="197.00" arrivalLane="114_4way_43to4way_44_0" arrivalPos="85.60" arrivalSpeed="12.07" duration="69.00" routeLength="375.13" waitingTime="27.00" waitingCount="1" stopTime="0.00" timeLoss="40.12" rerouteNo="0" devices="tripinfo_64" vType="DEFAULT_VEHTYPE" speedFactor="0.96" vaporized=""/>
    <tripinfo id="72" depart="144.00" departLane="8_4way_18to3way_19_0" departPos="5.10" departSpeed="0.00" departDelay="0.00" arrival="197.00" arrivalLane="6_3way_19to3way_29_0" arrivalPos="85.60" arrivalSpeed="15.83" duration="53.00" routeLength="180.29" waitingTime="31.00" waitingCount="1" stopTime="0.00" timeLoss="40.62" rerouteNo="0" devices="tripinfo_72" vType="DEFAULT_VEHTYPE" speedFactor="1.15" vaporized=""/>
    <tripinfo id="67" depart="134.00" departLane="159_4way_74to4way_73_0" departPos="5.10" departSpeed="0.00" departDelay="0.00" arrival="198.00" arrivalLane="160_4way_73to4way_83_0" arrivalPos="85.60" arrivalSpeed="11.97" duration="64.00" routeLength="175.13" waitingTime="40.00" waitingCount="1" stopTime="0.00" timeLoss="48.15" rerouteNo="0" devices="tripinfo_67" vType="DEFAULT_VEHTYPE" speedFactor="0.88" vaporized=""/>
    <tripinfo id="3" depart="6.00" departLane="138_4way_67to4way_57_0" departPos="5.10" departSpeed="0.00" departDelay="0.00" arrival="199.00" arrivalLane="97_4way_33to4way_32_0" arrivalPos="85.60" arrivalSpeed="12.28" duration="193.00" routeLength="775.13" waitingTime="107.00" waitingCount="3" stopTime="0.00" timeLoss="131.27" rerouteNo="0" devices="tripinfo_3" vType="DEFAULT_VEHTYPE" speedFactor="0.91" vaporized=""/>
    <tripinfo id="90" depart="180.00" departLane="52_3way_92to3way_93_0" departPos="5.10" departSpeed="0.00" departDelay="0.00" arrival="199.00" arrivalLane="55_3way_93to4way_83_0" arrivalPos="85.60" arrivalSpeed="11.99" duration="19.00" routeLength="175.13" waitingTime="0.00" waitingCount="0" stopTime="0.00" timeLoss="5.00" rerouteNo="0" devices="tripinfo_90" vType="DEFAULT_VEHTYPE" speedFactor="0.95" vaporized=""/>
    <tripinfo id="28" depart="56.00" departLane="50_3way_91to3way_92_0" departPos="5.10" departSpeed="0.00" departDelay="0.00" arrival="204.00" arrivalLane="128_4way_62to4way_52_0" arrivalPos="85.60" arrivalSpeed="13.86" duration="148.00" routeLength="475.13" waitingTime="95.00" waitingCount="2" stopTime="0.00" timeLoss="114.14" rerouteNo="0" devices="tripinfo_28" vType="DEFAULT_VEHTYPE" speedFactor="1.03" vaporized=""/>
    <tripinfo id="50" depart="100.00" departLane="137_4way_58to4way_57_0" departPos="5.10" departSpeed="0.00" departDelay="0.00" arrival="204.00" arrivalLane="149_4way_65to4way_75_0" arrivalPos="85.60" arrivalSpeed="13.51" duration="104.00" routeLength="475.13" waitingTime="54.00" waitingCount="2" stopTime="0.00" timeLoss="69.68" rerouteNo="0" devices="tripinfo_50" vType="DEFAULT_VEHTYPE" speedFactor="1.01" vaporized=""/>
    <tripinfo id="61" depart="122.00" departLane="87_4way_34to4way_24_0" departPos="5.10" departSpeed="0.00" departDelay="0.00" arrival="204.00" arrivalLane="67_4way_13to4way_12_0" arrivalPos="85.60" arrivalSpeed="13.37" duration="82.00" routeLength="375.13" waitingTime="46.00" waitingCount="1" stopTime="0.00" timeLoss="54.31" rerouteNo="0" devices="tripinfo_61" vType="DEFAULT_VEHTYPE" speedFactor="1.01" vaporized=""/>
    <tripinfo id="11" depart="22.00" departLane="103_4way_36to4way_35_0" departPos="5.10" departSpeed="0.00" departDelay="0.00" arrival="205.00" arrivalLane="127_4way_53to4way_52_0" arrivalPos="85.60" arrivalSpeed="12.92" duration="183.00" routeLength="574.93" waitingTime="120.00" waitingCount="3" stopTime="0.00" timeLoss="140.23" rerouteNo="0" devices="tripinfo_11" vType="DEFAULT_VEHTYPE" speedFactor="1.01" vaporized=""/>
    <tripinfo id="63" depart="126.00" departLane="29_3way_50to3way_60_0" departPos="5.10" departSpeed="0.00" departDelay="0.00" arrival="205.00" arrivalLane="172_4way_83to4way_84_0" arrivalPos="85.60" arrivalSpeed="13.23" duration="79.00" routeLength="675.13" waitingTime="15.00" waitingCount="1" stopTime="0.00" timeLoss="27.33" rerouteNo="0" devices="tripinfo_63" vType="DEFAULT_VEHTYPE" speedFactor="0.95" vaporized=""/>
    <tripinfo id="88" depart="176.00" departLane="22_3way_4to4way_14_0" departPos="5.10" departSpeed="0.00" departDelay="0.00" arrival="218.00" arrivalLane="116_4way_44to4way_45_0" arrivalPos="85.60" arrivalSpeed="13.74" duration="42.00" routeLength="475.13" waitingTime="0.00" waitingCount="0" stopTime="0.00" timeLoss="9.08" rerouteNo="0" devices="tripinfo_88" vType="DEFAULT_VEHTYPE" speedFactor="1.06" vaporized=""/>
    <tripinfo id="68" depart="136.00" departLane="83_4way_22to4way_32_0" departPos="5.10" departSpeed="0.00" departDelay="0.00" arrival="220.00" arrivalLane="159_4way_73to4way_74_0" arrivalPos="85.60" arrivalSpeed="14.50" duration="84.00" routeLength="675.13" waitingTime="25.00" waitingCount="1" stopTime="0.00" timeLoss="37.94" rerouteNo="0" devices="tripinfo_68" vType="DEFAULT_VEHTYPE" speedFactor="1.09" vaporized=""/>
    <tripinfo id="97" depart="194.00" departLane="46_3way_80to3way_91_0" departPos="5.10" departSpeed="0.00" departDelay="0.00" arrival="225.00" arrivalLane="52_3way_92to3way_93_0" arrivalPos="85.60" arrivalSpeed="14.40" duration="31.00" routeLength="377.30" waitingTime="0.00" waitingCount="0" stopTime="0.00" timeLoss="4.37" rerouteNo="0" devices="tripinfo_97" vType="DEFAULT_VEHTYPE" speedFactor="1.06" vaporized=""/>
    <tripinfo id="96" depart="192.00" departLane="171_4way_82to4way_83_0" departPos="5.10" departSpeed="0.00" departDelay="0.00" arrival="228.00" arrivalLane="164_4way_85to4way_75_0" arrivalPos="85.60" arrivalSpeed="12.14" duration="36.00" routeLength="375.13" waitingTime="0.00" waitingCount="0" stopTime="0.00" timeLoss="6.73" rerouteNo="0" devices="tripinfo_96" vType="DEFAULT_VEHTYPE" speedFactor="0.95" vaporized=""/>
    <tripinfo id="101" depart="202.00" departLane="33_3way_7to3way_6_0" departPos="5.10" departSpeed="0.00" departDelay="0.00" arrival="233.00" arrivalLane="15_3way_4to3way_3_0" arrivalPos="85.60" arrivalSpeed="13.94" duration="31.00" routeLength="380.50" waitingTime="0.00" waitingCount="0" stopTime="0.00" timeLoss="4.31" rerouteNo="0" devices="tripinfo_101" vType="DEFAULT_VEHTYPE" speedFactor="1.03" vaporized=""/>
    <tripinfo id="59" depart="118.00" departLane="70_4way_13to4way_23_0" departPos="5.10" departSpeed="0.00" departDelay="0.00" arrival="250.00" arrivalLane="146_4way_64to4way_65_0" arrivalPos="85.60" arrivalSpeed="4.69" duration="132.00" routeLength="675.13" waitingTime="69.00" waitingCount="2" stopTime="0.00" timeLoss="84.38" rerouteNo="0" devices="tripinfo_59" vType="DEFAULT_VEHTYPE" speedFactor="1.03" vaporized=""/>
    <tripinfo id="92" depart="184.00" departLane="69_4way_14to4way_13_0" departPos="5.10" departSpeed="0.00" departDelay="0.00" arrival="256.00" arrivalLane="100_4way_33to4way_43_0" arrivalPos="85.60" arrivalSpeed="14.63" duration="72.00" routeLength="375.13" waitingTime="35.00" waitingCount="1" stopTime="0.00" timeLoss="47.26" rerouteNo="0" devices="tripinfo_92" vType="DEFAULT_VEHTYPE" speedFactor="1.13" vaporized=""/>
    <tripinfo id="4" depart="8.00" departLane="125_4way_51to4way_52_0" departPos="5.10" departSpeed="0.00" departDelay="0.00" arrival="257.00" arrivalLane="137_4way_57to4way_58_0" arrivalPos="85.60" arrivalSpeed="14.09" duration="249.00" routeLength="680.50" waitingTime="177.00" waitingCount="3" stopTime="0.00" timeLoss="200.73" rerouteNo="0" devices="tripinfo_4" vType="DEFAULT_VEHTYPE" speedFactor="1.02" vaporized=""/>
    <tripinfo id="60" depart="120.00" departLane="146_4way_64to4way_65_0" departPos="5.10" departSpeed="0.00" departDelay="0.00" arrival="257.00" arrivalLane="124_4way_58to4way_48_0" arrivalPos="85.60" arrivalSpeed="15.31" duration="137.00" routeLength="575.13" waitingTime="79.00" waitingCount="2" stopTime="0.00" timeLoss="99.34" rerouteNo="0" devices="tripinfo_60" vType="DEFAULT_VEHTYPE" speedFactor="1.12" vaporized=""/>
    <tripinfo id="82" depart="164.00" departLane="95_4way_31to4way_32_0" departPos="5.10" departSpeed="0.00" departDelay="0.00" arrival="257.00" arrivalLane="10_4way_12to3way_2_0" arrivalPos="85.60" arrivalSpeed="13.13" duration="93.00" routeLength="375.13" waitingTime="49.00" waitingCount="2" stopTime="0.00" timeLoss="64.59" rerouteNo="0" devices="tripinfo_82" vType="DEFAULT_VEHTYPE" speedFactor="0.99" vaporized=""/>
    <tripinfo id="86" depart="172.00" departLane="54_3way_93to3way_94_0" departPos="5.10" departSpeed="0.00" departDelay="0.00" arrival="257.00" arrivalLane="136_4way_66to4way_56_0" arrivalPos="85.60" arrivalSpeed="14.09" duration="85.00" routeLength="675.13" waitingTime="24.00" waitingCount="1" stopTime="0.00" timeLoss="37.59" rerouteNo="0" devices="tripinfo_86" vType="DEFAULT_VEHTYPE" speedFactor="1.06" vaporized=""/>
    <tripinfo id="104" depart="208.00" departLane="56_3way_94to3way_95_0" departPos="5.10" departSpeed="0.00" departDelay="0.00" arrival="257.00" arrivalLane="64_3way_98to4way_88_0" arrivalPos="85.60" arrivalSpeed="12.87" duration="49.00" routeLength="475.13" waitingTime="2.00" waitingCount="1" stopTime="0.00" timeLoss="11.92" rerouteNo="0" devices="tripinfo_104" vType="DEFAULT_VEHTYPE" speedFactor="0.95" vaporized=""/>
    <tripinfo id="117" depart="234.00" departLane="113_4way_52to4way_42_0" departPos="5.10" departSpeed="0.00" departDelay="0.00" arrival="257.00" arrivalLane="110_4way_42to4way_41_0" arrivalPos="85.60" arrivalSpeed="11.41" duration="23.00" routeLength="175.13" waitingTime="0.00" waitingCount="0" stopTime="0.00" timeLoss="8.48" rerouteNo="0" devices="tripinfo_117" vType="DEFAULT_VEHTYPE" speedFactor="0.91" vaporized=""/>
    <tripinfo id="76" depart="152.00" departLane="92_4way_27to4way_28_0" departPos="5.10" departSpeed="0.00" departDelay="0.00" arrival="258.00" arrivalLane="19_3way_39to3way_49_0" arrivalPos="85.60" arrivalSpeed="11.89" duration="106.00" routeLength="380.29" waitingTime="60.00" waitingCount="2" stopTime="0.00" timeLoss="74.21" rerouteNo="0" devices="tripinfo_76" vType="DEFAULT_VEHTYPE" speedFactor="0.90" vaporized=""/>
    <tripinfo id="80" depart="160.00" departLane="120_4way_47to4way_46_0" departPos="5.10" departSpeed="0.00" departDelay="0.00" arrival="259.00" arrivalLane="134_4way_55to4way_65_0" arrivalPos="85.60" arrivalSpeed="9.95" duration="99.00" routeLength="375.13" waitingTime="47.00" waitingCount="2" stopTime="0.00" timeLoss="62.50" rerouteNo="0" devices="tripinfo_80" vType="DEFAULT_VEHTYPE" speedFactor="0.78" vaporized=""/>
    <tripinfo id="115" depart="230.00" departLane="16_3way_3to4way_13_0" departPos="5.10" departSpeed="0.00" departDelay="0.00" arrival="259.00" arrivalLane="70_4way_13to4way_23_0" arrivalPos="85.60" arrivalSpeed="11.63" duration="29.00" routeLength="180.50" waitingTime="6.00" waitingCount="1" stopTime="0.00" timeLoss="14.78" rerouteNo="0" devices="tripinfo_115" vType="DEFAULT_VEHTYPE" speedFactor="0.92" vaporized=""/>
    <tripinfo id="55" depart="110.00" departLane="24_3way_40to4way_41_0" departPos="5.10" departSpeed="0.00" departDelay="0.00" arrival="260.00" arrivalLane="116_4way_44to4way_45_0" arrivalPos="85.60" arrivalSpeed="7.92" duration="150.00" routeLength="480.50" waitingTime="92.00" waitingCount="3" stopTime="0.00" timeLoss="113.07" rerouteNo="0" devices="tripinfo_55" vType="DEFAULT_VEHTYPE" speedFactor="0.94" vaporized=""/>
    <tripinfo id="56" depart="112.00" departLane="155_4way_71to4way_72_0" departPos="5.10" departSpeed="0.00" departDelay="0.00" arrival="260.00" arrivalLane="163_4way_75to4way_76_0" arrivalPos="85.60" arrivalSpeed="6.62" duration="148.00" routeLength="480.50" waitingTime="95.00" waitingCount="2" stopTime="0.00" timeLoss="113.76" rerouteNo="0" devices="tripinfo_56" vType="DEFAULT_VEHTYPE" speedFactor="1.02" vaporized=""/>
    <tripinfo id="81" depart="162.00" departLane="108_4way_37to4way_47_0" departPos="5.10" departSpeed="0.00" departDelay="0.00" arrival="261.00" arrivalLane="152_4way_67to4way_68_0" arrivalPos="85.60" arrivalSpeed="13.51" duration="99.00" routeLength="375.13" waitingTime="58.00" waitingCount="2" stopTime="0.00" timeLoss="72.69" rerouteNo="0" devices="tripinfo_81" vType="DEFAULT_VEHTYPE" speedFactor="1.05" vaporized=""/>
    <tripinfo id="12" depart="24.00" departLane="146_4way_64to4way_65_0" departPos="5.10" departSpeed="0.00" departDelay="0.00" arrival="262.00" arrivalLane="25_3way_59to3way_49_0" arrivalPos="85.60" arrivalSpeed="15.72" duration="238.00" routeLength="675.13" waitingTime="162.00" waitingCount="4" stopTime="0.00" timeLoss="195.31" rerouteNo="0" devices="tripinfo_12" vType="DEFAULT_VEHTYPE" speedFactor="1.16" vaporized=""/>
    <tripinfo id="109" depart="218.00" departLane="120_4way_47to4way_46_0" departPos="5.10" departSpeed="0.00" departDelay="0.00" arrival="262.00" arrivalLane="117_4way_44to4way_54_0" arrivalPos="85.60" arrivalSpeed="13.88" duration="44.00" routeLength="375.13" waitingTime="4.00" waitingCount="1" stopTime="0.00" timeLoss="16.56" rerouteNo="0" devices="tripinfo_109" vType="DEFAULT_VEHTYPE" speedFactor="1.04" vaporized=""/>
    <tripinfo id="84" depart="168.00" departLane="27_3way_6to3way_5_0" departPos="5.10" departSpeed="0.00" departDelay="0.00" arrival="264.00" arrivalLane="85_4way_23to4way_33_0" arrivalPos="85.60" arrivalSpeed="14.20" duration="96.00" routeLength="575.13" waitingTime="43.00" waitingCount="1" stopTime="0.00" timeLoss="55.83" rerouteNo="0" devices="tripinfo_84" vType="DEFAULT_VEHTYPE" speedFactor="1.06" vaporized=""/>
    <tripinfo id="83" depart="166.00" departLane="64_3way_98to4way_88_0" departPos="5.10" departSpeed="0.00" departDelay="0.00" arrival="265.00" arrivalLane="163_4way_76to4way_75_0" arrivalPos="85.60" arrivalSpeed="12.47" duration="99.00" routeLength="475.13" waitingTime="45.00" waitingCount="2" stopTime="0.00" timeLoss="61.58" rerouteNo="0" devices="tripinfo_83" vType="DEFAULT_VEHTYPE" speedFactor="0.93" vaporized=""/>
    <tripinfo id="77" depart="154.00" departLane="159_4way_73to4way_74_0" departPos="5.10" departSpeed="0.00" departDelay="0.00" arrival="267.00" arrivalLane="151_4way_76to4way_66_0" arrivalPos="85.60" arrivalSpeed="12.80" duration="113.00" routeLength="375.13" waitingTime="67.00" waitingCount="2" stopTime="0.00" timeLoss="84.56" rerouteNo="0" devices="tripinfo_77" vType="DEFAULT_VEHTYPE" speedFactor="0.99" vaporized=""/>