<?xml version="1.0" encoding="UTF-8"?>

<!-- generated on 2023-02-24 21:15:37 by Eclipse SUMO sumo Version 1.12.0
<configuration xmlns:xsi="http://www.w3.org/2001/XMLSchema-instance" xsi:noNamespaceSchemaLocation="http://sumo.dlr.de/xsd/sumoConfiguration.xsd">

    <input>
        <net-file value="../../data_generation/sq.net.xml"/>
        <route-files value="../../data_generation/sq.rou.xml"/>
    </input>

    <output>
        <tripinfo-output value="tripinfo.xml"/>
        <statistic-output value="statistic.xml"/>
    </output>

    <time>
        <begin value="0"/>
        <end value="3600"/>
    </time>

    <processing>
        <time-to-teleport value="-1"/>
    </processing>

    <traci_server>
        <remote-port value="37285"/>
    </traci_server>

    <random_number>
        <seed value="1395"/>
    </random_number>

    <gui_only>
        <gui-settings-file value="../../data_generation/view_HY_0402.xml"/>
    </gui_only>

</configuration>
-->

<tripinfos xmlns:xsi="http://www.w3.org/2001/XMLSchema-instance" xsi:noNamespaceSchemaLocation="http://sumo.dlr.de/xsd/tripinfo_file.xsd">
    <tripinfo id="1" depart="1.00" departLane="9_3way_B0to4way_B1_0" departPos="5.10" departSpeed="0.00" departDelay="0.58" arrival="18.00" arrivalLane="9_3way_B0to4way_B1_0" arrivalPos="185.60" arrivalSpeed="13.69" duration="17.00" routeLength="180.50" waitingTime="0.00" waitingCount="0" stopTime="0.00" timeLoss="3.89" rerouteNo="0" devices="tripinfo_1" vType="DEFAULT_VEHTYPE" speedFactor="1.04" vaporized=""/>
    <tripinfo id="16" depart="7.00" departLane="3_4way_B1to3way_A1_0" departPos="5.10" departSpeed="0.00" departDelay="0.28" arrival="26.00" arrivalLane="3_4way_B1to3way_A1_0" arrivalPos="185.60" arrivalSpeed="11.51" duration="19.00" routeLength="180.50" waitingTime="0.00" waitingCount="0" stopTime="0.00" timeLoss="4.29" rerouteNo="0" devices="tripinfo_16" vType="DEFAULT_VEHTYPE" speedFactor="0.90" vaporized=""/>
    <tripinfo id="21" depart="9.00" departLane="22_3way_E2to3way_E3_0" departPos="5.10" departSpeed="0.00" departDelay="0.18" arrival="28.00" arrivalLane="22_3way_E2to3way_E3_0" arrivalPos="185.60" arrivalSpeed="10.67" duration="19.00" routeLength="180.50" waitingTime="0.00" waitingCount="0" stopTime="0.00" timeLoss="3.17" rerouteNo="0" devices="tripinfo_21" vType="DEFAULT_VEHTYPE" speedFactor="0.82" vaporized=""/>
    <tripinfo id="24" depart="11.00" departLane="10_3way_B4to3way_C4_0" departPos="5.10" departSpeed="0.00" departDelay="0.92" arrival="28.00" arrivalLane="10_3way_B4to3way_C4_0" arrivalPos="185.60" arrivalSpeed="13.11" duration="17.00" routeLength="180.50" waitingTime="0.00" waitingCount="0" stopTime="0.00" timeLoss="3.35" rerouteNo="0" devices="tripinfo_24" vType="DEFAULT_VEHTYPE" speedFactor="0.97" vaporized=""/>
    <tripinfo id="0" depart="0.00" departLane="25_4way_B2to4way_B1_0" departPos="5.10" departSpeed="0.00" departDelay="0.00" arrival="31.00" arrivalLane="9_4way_B1to3way_B0_0" arrivalPos="185.60" arrivalSpeed="13.61" duration="31.00" routeLength="380.50" waitingTime="0.00" waitingCount="0" stopTime="0.00" timeLoss="3.71" rerouteNo="0" devices="tripinfo_0" vType="DEFAULT_VEHTYPE" speedFactor="1.00" vaporized=""/>
    <tripinfo id="12" depart="6.00" departLane="15_4way_C3to3way_C4_0" departPos="5.10" departSpeed="0.00" departDelay="0.96" arrival="37.00" arrivalLane="10_3way_C4to3way_B4_0" arrivalPos="185.60" arrivalSpeed="15.78" duration="31.00" routeLength="375.13" waitingTime="0.00" waitingCount="0" stopTime="0.00" timeLoss="6.61" rerouteNo="0" devices="tripinfo_12" vType="DEFAULT_VEHTYPE" speedFactor="1.16" vaporized=""/>
    <tripinfo id="8" depart="5.00" departLane="27_4way_B3to4way_B2_0" departPos="5.10" departSpeed="0.00" departDelay="1.64" arrival="40.00" arrivalLane="28_4way_B2to4way_C2_0" arrivalPos="185.60" arrivalSpeed="13.25" duration="35.00" routeLength="375.13" waitingTime="0.00" waitingCount="0" stopTime="0.00" timeLoss="5.97" rerouteNo="0" devices="tripinfo_8" vType="DEFAULT_VEHTYPE" speedFactor="0.98" vaporized=""/>
    <tripinfo id="63" depart="27.00" departLane="9_4way_B1to3way_B0_0" departPos="5.10" departSpeed="0.00" departDelay="0.54" arrival="45.00" arrivalLane="9_4way_B1to3way_B0_0" arrivalPos="185.60" arrivalSpeed="13.04" duration="18.00" routeLength="180.50" waitingTime="0.00" waitingCount="0" stopTime="0.00" timeLoss="3.41" rerouteNo="0" devices="tripinfo_63" vType="DEFAULT_VEHTYPE" speedFactor="0.95" vaporized=""/>
    <tripinfo id="64" depart="27.00" departLane="26_4way_C1to4way_B1_0" departPos="5.10" departSpeed="0.00" departDelay="0.12" arrival="45.00" arrivalLane="26_4way_C1to4way_B1_0" arrivalPos="185.60" arrivalSpeed="12.92" duration="18.00" routeLength="180.50" waitingTime="0.00" waitingCount="0" stopTime="0.00" timeLoss="3.60" rerouteNo="0" devices="tripinfo_64" vType="DEFAULT_VEHTYPE" speedFactor="0.96" vaporized=""/>
    <tripinfo id="27" depart="12.00" departLane="6_3way_A3to3way_B4_0" departPos="5.10" departSpeed="0.00" departDelay="0.66" arrival="46.00" arrivalLane="6_3way_A3to3way_B4_0" arrivalPos="388.80" arrivalSpeed="13.88" duration="34.00" routeLength="383.70" waitingTime="0.00" waitingCount="0" stopTime="0.00" timeLoss="6.58" rerouteNo="0" devices="tripinfo_27" vType="DEFAULT_VEHTYPE" speedFactor="1.03" vaporized=""/>
    <tripinfo id="77" depart="33.00" departLane="27_4way_B3to4way_B2_0" departPos="5.10" departSpeed="0.00" departDelay="0.66" arrival="50.00" arrivalLane="27_4way_B3to4way_B2_0" arrivalPos="185.60" arrivalSpeed="13.44" duration="17.00" routeLength="180.50" waitingTime="0.00" waitingCount="0" stopTime="0.00" timeLoss="3.50" rerouteNo="0" devices="tripinfo_77" vType="DEFAULT_VEHTYPE" speedFactor="0.99" vaporized=""/>
    <tripinfo id="71" depart="35.00" departLane="11_4way_B3to3way_B4_0" departPos="5.10" departSpeed="0.00" departDelay="5.18" arrival="51.00" arrivalLane="11_4way_B3to3way_B4_0" arrivalPos="185.60" arrivalSpeed="14.97" duration="16.00" routeLength="180.50" waitingTime="0.00" waitingCount="0" stopTime="0.00" timeLoss="3.60" rerouteNo="0" devices="tripinfo_71" vType="DEFAULT_VEHTYPE" speedFactor="1.13" vaporized=""/>
    <tripinfo id="76" depart="32.00" departLane="17_3way_D0to4way_D1_0" departPos="5.10" departSpeed="0.00" departDelay="0.08" arrival="51.00" arrivalLane="17_3way_D0to4way_D1_0" arrivalPos="185.60" arrivalSpeed="12.01" duration="19.00" routeLength="180.50" waitingTime="0.00" waitingCount="0" stopTime="0.00" timeLoss="3.65" rerouteNo="0" devices="tripinfo_76" vType="DEFAULT_VEHTYPE" speedFactor="0.90" vaporized=""/>
    <tripinfo id="78" depart="34.00" departLane="36_4way_D2to4way_D3_0" departPos="5.10" departSpeed="0.00" departDelay="1.24" arrival="51.00" arrivalLane="36_4way_D2to4way_D3_0" arrivalPos="185.60" arrivalSpeed="13.72" duration="17.00" routeLength="180.50" waitingTime="0.00" waitingCount="0" stopTime="0.00" timeLoss="3.71" rerouteNo="0" devices="tripinfo_78" vType="DEFAULT_VEHTYPE" speedFactor="1.03" vaporized=""/>
    <tripinfo id="10" depart="5.00" departLane="30_4way_C2to4way_C1_0" departPos="5.10" departSpeed="0.00" departDelay="0.80" arrival="53.00" arrivalLane="12_3way_C0to3way_D0_0" arrivalPos="185.60" arrivalSpeed="13.67" duration="48.00" routeLength="575.13" waitingTime="0.00" waitingCount="0" stopTime="0.00" timeLoss="6.80" rerouteNo="0" devices="tripinfo_10" vType="DEFAULT_VEHTYPE" speedFactor="1.04" vaporized=""/>
    <tripinfo id="17" depart="8.00" departLane="35_4way_D1to4way_D2_0" departPos="5.10" departSpeed="0.00" departDelay="0.86" arrival="56.00" arrivalLane="34_4way_D3to4way_C3_0" arrivalPos="185.60" arrivalSpeed="13.54" duration="48.00" routeLength="575.13" waitingTime="0.00" waitingCount="0" stopTime="0.00" timeLoss="6.91" rerouteNo="0" devices="tripinfo_17" vType="DEFAULT_VEHTYPE" speedFactor="1.04" vaporized=""/>
    <tripinfo id="89" depart="39.00" departLane="9_4way_B1to3way_B0_0" departPos="5.10" departSpeed="0.00" departDelay="1.62" arrival="57.00" arrivalLane="9_4way_B1to3way_B0_0" arrivalPos="185.60" arrivalSpeed="12.26" duration="18.00" routeLength="180.50" waitingTime="0.00" waitingCount="0" stopTime="0.00" timeLoss="3.37" rerouteNo="0" devices="tripinfo_89" vType="DEFAULT_VEHTYPE" speedFactor="0.93" vaporized=""/>
    <tripinfo id="99" depart="42.00" departLane="17_3way_D0to4way_D1_0" departPos="5.10" departSpeed="0.00" departDelay="0.42" arrival="59.00" arrivalLane="17_3way_D0to4way_D1_0" arrivalPos="185.60" arrivalSpeed="13.19" duration="17.00" routeLength="180.50" waitingTime="0.00" waitingCount="0" stopTime="0.00" timeLoss="3.20" rerouteNo="0" devices="tripinfo_99" vType="DEFAULT_VEHTYPE" speedFactor="0.97" vaporized=""/>
    <tripinfo id="98" depart="42.00" departLane="1_3way_A2to3way_A1_0" departPos="5.10" departSpeed="0.00" departDelay="0.84" arrival="60.00" arrivalLane="1_3way_A2to3way_A1_0" arrivalPos="185.60" arrivalSpeed="11.24" duration="18.00" routeLength="180.50" waitingTime="0.00" waitingCount="0" stopTime="0.00" timeLoss="3.28" rerouteNo="0" devices="tripinfo_98" vType="DEFAULT_VEHTYPE" speedFactor="0.88" vaporized=""/>
    <tripinfo id="68" depart="29.00" departLane="35_4way_D1to4way_D2_0" departPos="5.10" departSpeed="0.00" departDelay="0.44" arrival="61.00" arrivalLane="33_4way_D2to4way_C2_0" arrivalPos="185.60" arrivalSpeed="14.02" duration="32.00" routeLength="375.13" waitingTime="0.00" waitingCount="0" stopTime="0.00" timeLoss="6.33" rerouteNo="0" devices="tripinfo_68" vType="DEFAULT_VEHTYPE" speedFactor="1.09" vaporized=""/>
    <tripinfo id="32" depart="14.00" departLane="17_3way_D0to4way_D1_0" departPos="5.10" departSpeed="0.00" departDelay="0.56" arrival="64.00" arrivalLane="36_4way_D2to4way_D3_0" arrivalPos="185.60" arrivalSpeed="13.23" duration="50.00" routeLength="580.50" waitingTime="0.00" waitingCount="0" stopTime="0.00" timeLoss="7.68" rerouteNo="0" devices="tripinfo_32" vType="DEFAULT_VEHTYPE" speedFactor="1.00" vaporized=""/>
    <tripinfo id="51" depart="22.00" departLane="35_4way_D2to4way_D1_0" departPos="5.10" departSpeed="0.00" departDelay="0.58" arrival="64.00" arrivalLane="17_4way_D1to3way_D0_0" arrivalPos="185.60" arrivalSpeed="9.36" duration="42.00" routeLength="380.50" waitingTime="0.00" waitingCount="0" stopTime="0.00" timeLoss="4.73" rerouteNo="0" devices="tripinfo_51" vType="DEFAULT_VEHTYPE" speedFactor="0.74" vaporized=""/>
    <tripinfo id="6" depart="3.00" departLane="29_4way_C3to4way_B3_0" departPos="5.10" departSpeed="0.00" departDelay="0.48" arrival="65.00" arrivalLane="9_4way_B1to3way_B0_0" arrivalPos="185.60" arrivalSpeed="13.62" duration="62.00" routeLength="775.13" waitingTime="0.00" waitingCount="0" stopTime="0.00" timeLoss="7.26" rerouteNo="0" devices="tripinfo_6" vType="DEFAULT_VEHTYPE" speedFactor="1.04" vaporized=""/>
    <tripinfo id="111" depart="47.00" departLane="14_3way_C4to3way_D4_0" departPos="5.10" departSpeed="0.00" departDelay="0.38" arrival="66.00" arrivalLane="14_3way_C4to3way_D4_0" arrivalPos="185.60" arrivalSpeed="10.50" duration="19.00" routeLength="180.50" waitingTime="0.00" waitingCount="0" stopTime="0.00" timeLoss="3.16" rerouteNo="0" devices="tripinfo_111" vType="DEFAULT_VEHTYPE" speedFactor="0.84" vaporized=""/>
    <tripinfo id="116" depart="49.00" departLane="7_3way_A3to4way_B3_0" departPos="5.10" departSpeed="0.00" departDelay="0.28" arrival="66.00" arrivalLane="7_3way_A3to4way_B3_0" arrivalPos="185.60" arrivalSpeed="13.70" duration="17.00" routeLength="180.50" waitingTime="0.00" waitingCount="0" stopTime="0.00" timeLoss="3.45" rerouteNo="0" devices="tripinfo_116" vType="DEFAULT_VEHTYPE" speedFactor="0.99" vaporized=""/>
    <tripinfo id="69" depart="29.00" departLane="29_4way_C3to4way_B3_0" departPos="5.10" departSpeed="0.00" departDelay="0.02" arrival="67.00" arrivalLane="7_4way_B3to3way_A3_0" arrivalPos="185.60" arrivalSpeed="11.01" duration="38.00" routeLength="380.50" waitingTime="0.00" waitingCount="0" stopTime="0.00" timeLoss="4.25" rerouteNo="0" devices="tripinfo_69" vType="DEFAULT_VEHTYPE" speedFactor="0.82" vaporized=""/>
    <tripinfo id="124" depart="53.00" departLane="9_4way_B1to3way_B0_0" departPos="5.10" departSpeed="0.00" departDelay="0.92" arrival="68.00" arrivalLane="9_4way_B1to3way_B0_0" arrivalPos="185.60" arrivalSpeed="14.93" duration="15.00" routeLength="180.50" waitingTime="0.00" waitingCount="0" stopTime="0.00" timeLoss="3.08" rerouteNo="0" devices="tripinfo_124" vType="DEFAULT_VEHTYPE" speedFactor="1.11" vaporized=""/>
    <tripinfo id="122" depart="53.00" departLane="28_4way_B2to4way_C2_0" departPos="5.10" departSpeed="0.00" departDelay="1.76" arrival="69.00" arrivalLane="28_4way_B2to4way_C2_0" arrivalPos="185.60" arrivalSpeed="16.44" duration="16.00" routeLength="180.50" waitingTime="0.00" waitingCount="0" stopTime="0.00" timeLoss="4.33" rerouteNo="0" devices="tripinfo_122" vType="DEFAULT_VEHTYPE" speedFactor="1.20" vaporized=""/>
    <tripinfo id="20" depart="9.00" departLane="6_3way_A3to3way_B4_0" departPos="5.10" departSpeed="0.00" departDelay="0.60" arrival="70.00" arrivalLane="10_3way_B4to3way_C4_0" arrivalPos="185.60" arrivalSpeed="5.81" duration="61.00" routeLength="583.70" waitingTime="3.00" waitingCount="1" stopTime="0.00" timeLoss="13.65" rerouteNo="0" devices="tripinfo_20" vType="DEFAULT_VEHTYPE" speedFactor="0.89" vaporized=""/>
    <tripinfo id="45" depart="19.00" departLane="3_3way_A1to4way_B1_0" departPos="5.10" departSpeed="0.00" departDelay="0.10" arrival="70.00" arrivalLane="3_3way_A1to4way_B1_0" arrivalPos="185.60" arrivalSpeed="5.41" duration="51.00" routeLength="180.50" waitingTime="30.00" waitingCount="1" stopTime="0.00" timeLoss="37.93" rerouteNo="0" devices="tripinfo_45" vType="DEFAULT_VEHTYPE" speedFactor="1.00" vaporized=""/>
    <tripinfo id="42" depart="20.00" departLane="35_4way_D1to4way_D2_0" departPos="5.10" departSpeed="0.00" departDelay="2.36" arrival="71.00" arrivalLane="24_4way_D3to3way_E3_0" arrivalPos="185.60" arrivalSpeed="12.77" duration="51.00" routeLength="580.30" waitingTime="0.00" waitingCount="0" stopTime="0.00" timeLoss="7.79" rerouteNo="0" devices="tripinfo_42" vType="DEFAULT_VEHTYPE" speedFactor="0.99" vaporized=""/>
    <tripinfo id="92" depart="39.00" departLane="15_4way_C3to3way_C4_0" departPos="5.10" departSpeed="0.00" departDelay="0.36" arrival="71.00" arrivalLane="10_3way_C4to3way_B4_0" arrivalPos="185.60" arrivalSpeed="15.44" duration="32.00" routeLength="375.13" waitingTime="0.00" waitingCount="0" stopTime="0.00" timeLoss="7.01" rerouteNo="0" devices="tripinfo_92" vType="DEFAULT_VEHTYPE" speedFactor="1.13" vaporized=""/>
    <tripinfo id="50" depart="21.00" departLane="19_4way_D3to3way_D4_0" departPos="5.10" departSpeed="0.00" departDelay="0.00" arrival="73.00" arrivalLane="14_3way_D4to3way_C4_0" arrivalPos="185.60" arrivalSpeed="6.63" duration="52.00" routeLength="375.13" waitingTime="12.00" waitingCount="1" stopTime="0.00" timeLoss="24.67" rerouteNo="0" devices="tripinfo_50" vType="DEFAULT_VEHTYPE" speedFactor="1.01" vaporized=""/>
    <tripinfo id="133" depart="56.00" departLane="15_4way_C3to3way_C4_0" departPos="5.10" departSpeed="0.00" departDelay="0.14" arrival="73.00" arrivalLane="15_4way_C3to3way_C4_0" arrivalPos="185.60" arrivalSpeed="13.08" duration="17.00" routeLength="180.50" waitingTime="0.00" waitingCount="0" stopTime="0.00" timeLoss="3.29" rerouteNo="0" devices="tripinfo_133" vType="DEFAULT_VEHTYPE" speedFactor="1.01" vaporized=""/>
    <tripinfo id="134" depart="57.00" departLane="32_4way_C2to4way_C3_0" departPos="5.10" departSpeed="0.00" departDelay="0.72" arrival="74.00" arrivalLane="32_4way_C2to4way_C3_0" arrivalPos="185.60" arrivalSpeed="12.88" duration="17.00" routeLength="180.50" waitingTime="0.00" waitingCount="0" stopTime="0.00" timeLoss="3.28" rerouteNo="0" devices="tripinfo_134" vType="DEFAULT_VEHTYPE" speedFactor="1.00" vaporized=""/>
    <tripinfo id="70" depart="30.00" departLane="36_4way_D3to4way_D2_0" departPos="5.10" departSpeed="0.00" departDelay="0.60" arrival="76.00" arrivalLane="35_4way_D2to4way_D1_0" arrivalPos="185.60" arrivalSpeed="10.01" duration="46.00" routeLength="380.50" waitingTime="0.00" waitingCount="0" stopTime="0.00" timeLoss="9.06" rerouteNo="0" devices="tripinfo_70" vType="DEFAULT_VEHTYPE" speedFactor="0.75" vaporized=""/>
    <tripinfo id="94" depart="42.00" departLane="14_3way_D4to3way_C4_0" departPos="5.10" departSpeed="0.00" departDelay="2.52" arrival="76.00" arrivalLane="14_3way_D4to3way_C4_0" arrivalPos="185.60" arrivalSpeed="9.98" duration="34.00" routeLength="180.50" waitingTime="10.00" waitingCount="1" stopTime="0.00" timeLoss="21.41" rerouteNo="0" devices="tripinfo_94" vType="DEFAULT_VEHTYPE" speedFactor="1.08" vaporized=""/>
    <tripinfo id="101" depart="43.00" departLane="15_3way_C4to4way_C3_0" departPos="5.10" departSpeed="0.00" departDelay="0.58" arrival="77.00" arrivalLane="34_4way_C3to4way_D3_0" arrivalPos="185.60" arrivalSpeed="13.50" duration="34.00" routeLength="375.13" waitingTime="0.00" waitingCount="0" stopTime="0.00" timeLoss="6.63" rerouteNo="0" devices="tripinfo_101" vType="DEFAULT_VEHTYPE" speedFactor="1.03" vaporized=""/>
    <tripinfo id="125" depart="53.00" departLane="24_3way_E3to4way_D3_0" departPos="5.10" departSpeed="0.00" departDelay="0.50" arrival="77.00" arrivalLane="24_3way_E3to4way_D3_0" arrivalPos="185.60" arrivalSpeed="9.57" duration="24.00" routeLength="180.50" waitingTime="0.00" waitingCount="0" stopTime="0.00" timeLoss="10.06" rerouteNo="0" devices="tripinfo_125" vType="DEFAULT_VEHTYPE" speedFactor="0.95" vaporized=""/>
    <tripinfo id="140" depart="59.00" departLane="13_4way_C1to3way_C0_0" departPos="5.10" departSpeed="0.00" departDelay="0.20" arrival="77.00" arrivalLane="13_4way_C1to3way_C0_0" arrivalPos="185.60" arrivalSpeed="12.69" duration="18.00" routeLength="180.50" waitingTime="0.00" waitingCount="0" stopTime="0.00" timeLoss="3.41" rerouteNo="0" devices="tripinfo_140" vType="DEFAULT_VEHTYPE" speedFactor="0.93" vaporized=""/>
    <tripinfo id="144" depart="61.00" departLane="7_4way_B3to3way_A3_0" departPos="5.10" departSpeed="0.00" departDelay="0.52" arrival="77.00" arrivalLane="7_4way_B3to3way_A3_0" arrivalPos="185.60" arrivalSpeed="14.87" duration="16.00" routeLength="180.50" waitingTime="0.00" waitingCount="0" stopTime="0.00" timeLoss="3.22" rerouteNo="0" devices="tripinfo_144" vType="DEFAULT_VEHTYPE" speedFactor="1.07" vaporized=""/>
    <tripinfo id="18" depart="8.00" departLane="16_3way_D0to3way_E1_0" departPos="5.10" departSpeed="0.00" departDelay="0.44" arrival="78.00" arrivalLane="20_3way_E1to3way_E2_0" arrivalPos="185.60" arrivalSpeed="10.16" duration="70.00" routeLength="577.30" waitingTime="12.00" waitingCount="1" stopTime="0.00" timeLoss="25.80" rerouteNo="0" devices="tripinfo_18" vType="DEFAULT_VEHTYPE" speedFactor="0.96" vaporized=""/>
    <tripinfo id="47" depart="20.00" departLane="19_3way_D4to4way_D3_0" departPos="5.10" departSpeed="0.00" departDelay="0.26" arrival="78.00" arrivalLane="35_4way_D2to4way_D1_0" arrivalPos="185.60" arrivalSpeed="11.97" duration="58.00" routeLength="580.50" waitingTime="0.00" waitingCount="0" stopTime="0.00" timeLoss="10.76" rerouteNo="0" devices="tripinfo_47" vType="DEFAULT_VEHTYPE" speedFactor="0.90" vaporized=""/>
    <tripinfo id="145" depart="61.00" departLane="32_4way_C2to4way_C3_0" departPos="5.10" departSpeed="0.00" departDelay="0.10" arrival="79.00" arrivalLane="32_4way_C2to4way_C3_0" arrivalPos="185.60" arrivalSpeed="12.45" duration="18.00" routeLength="180.50" waitingTime="0.00" waitingCount="0" stopTime="0.00" timeLoss="4.34" rerouteNo="0" devices="tripinfo_145" vType="DEFAULT_VEHTYPE" speedFactor="0.96" vaporized=""/>
    <tripinfo id="148" depart="63.00" departLane="4_3way_A2to3way_A3_0" departPos="5.10" departSpeed="0.00" departDelay="0.84" arrival="79.00" arrivalLane="4_3way_A2to3way_A3_0" arrivalPos="185.60" arrivalSpeed="13.59" duration="16.00" routeLength="180.50" waitingTime="0.00" waitingCount="0" stopTime="0.00" timeLoss="3.84" rerouteNo="0" devices="tripinfo_148" vType="DEFAULT_VEHTYPE" speedFactor="1.07" vaporized=""/>
    <tripinfo id="137" depart="58.00" departLane="3_3way_A1to4way_B1_0" departPos="5.10" departSpeed="0.00" departDelay="0.46" arrival="80.00" arrivalLane="3_3way_A1to4way_B1_0" arrivalPos="185.60" arrivalSpeed="13.33" duration="22.00" routeLength="180.50" waitingTime="0.00" waitingCount="0" stopTime="0.00" timeLoss="10.45" rerouteNo="0" devices="tripinfo_137" vType="DEFAULT_VEHTYPE" speedFactor="1.14" vaporized=""/>
    <tripinfo id="110" depart="50.00" departLane="28_4way_B2to4way_C2_0" departPos="5.10" departSpeed="0.00" departDelay="3.80" arrival="83.00" arrivalLane="32_4way_C2to4way_C3_0" arrivalPos="185.60" arrivalSpeed="14.08" duration="33.00" routeLength="375.13" waitingTime="0.00" waitingCount="0" stopTime="0.00" timeLoss="5.99" rerouteNo="0" devices="tripinfo_110" vType="DEFAULT_VEHTYPE" speedFactor="1.05" vaporized=""/>
    <tripinfo id="22" depart="10.00" departLane="12_3way_D0to3way_C0_0" departPos="5.10" departSpeed="0.00" departDelay="0.76" arrival="84.00" arrivalLane="8_3way_C0to3way_B0_0" arrivalPos="185.60" arrivalSpeed="13.35" duration="74.00" routeLength="380.50" waitingTime="37.00" waitingCount="1" stopTime="0.00" timeLoss="46.53" rerouteNo="0" devices="tripinfo_22" vType="DEFAULT_VEHTYPE" speedFactor="1.00" vaporized=""/>
    <tripinfo id="26" depart="11.00" departLane="19_3way_D4to4way_D3_0" departPos="5.10" departSpeed="0.00" departDelay="0.08" arrival="84.00" arrivalLane="17_4way_D1to3way_D0_0" arrivalPos="185.60" arrivalSpeed="13.93" duration="73.00" routeLength="780.50" waitingTime="7.00" waitingCount="1" stopTime="0.00" timeLoss="18.06" rerouteNo="0" devices="tripinfo_26" vType="DEFAULT_VEHTYPE" speedFactor="1.03" vaporized=""/>
    <tripinfo id="34" depart="15.00" departLane="3_3way_A1to4way_B1_0" departPos="5.10" departSpeed="0.00" departDelay="0.72" arrival="85.00" arrivalLane="25_4way_B1to4way_B2_0" arrivalPos="185.60" arrivalSpeed="12.71" duration="70.00" routeLength="375.13" waitingTime="32.00" waitingCount="1" stopTime="0.00" timeLoss="40.64" rerouteNo="0" devices="tripinfo_34" vType="DEFAULT_VEHTYPE" speedFactor="0.96" vaporized=""/>
    <tripinfo id="40" depart="17.00" departLane="1_3way_A2to3way_A1_0" departPos="5.10" departSpeed="0.00" departDelay="0.20" arrival="85.00" arrivalLane="8_3way_B0to3way_C0_0" arrivalPos="185.60" arrivalSpeed="13.88" duration="68.00" routeLength="777.30" waitingTime="4.00" waitingCount="1" stopTime="0.00" timeLoss="16.25" rerouteNo="0" devices="tripinfo_40" vType="DEFAULT_VEHTYPE" speedFactor="1.08" vaporized=""/>
    <tripinfo id="43" depart="20.00" departLane="5_4way_B2to3way_A2_0" departPos="5.10" departSpeed="0.00" departDelay="1.94" arrival="85.00" arrivalLane="4_3way_A2to3way_A3_0" arrivalPos="185.60" arrivalSpeed="13.07" duration="65.00" routeLength="380.29" waitingTime="27.00" waitingCount="1" stopTime="0.00" timeLoss="35.67" rerouteNo="0" devices="tripinfo_43" vType="DEFAULT_VEHTYPE" speedFactor="0.97" vaporized=""/>
    <tripinfo id="15" depart="7.00" departLane="8_3way_B0to3way_C0_0" departPos="5.10" departSpeed="0.00" departDelay="0.70" arrival="86.00" arrivalLane="12_3way_C0to3way_D0_0" arrivalPos="185.60" arrivalSpeed="14.20" duration="79.00" routeLength="380.50" waitingTime="42.00" waitingCount="1" stopTime="0.00" timeLoss="52.19" rerouteNo="0" devices="tripinfo_15" vType="DEFAULT_VEHTYPE" speedFactor="1.05" vaporized=""/>
    <tripinfo id="23" depart="10.00" departLane="7_3way_A3to4way_B3_0" departPos="5.10" departSpeed="0.00" departDelay="0.34" arrival="86.00" arrivalLane="34_4way_C3to4way_D3_0" arrivalPos="185.60" arrivalSpeed="11.47" duration="76.00" routeLength="580.50" waitingTime="18.00" waitingCount="1" stopTime="0.00" timeLoss="28.19" rerouteNo="0" devices="tripinfo_23" vType="DEFAULT_VEHTYPE" speedFactor="0.87" vaporized=""/>
    <tripinfo id="103" depart="44.00" departLane="5_4way_B2to3way_A2_0" departPos="5.10" departSpeed="0.00" departDelay="0.74" arrival="86.00" arrivalLane="1_3way_A2to3way_A1_0" arrivalPos="185.60" arrivalSpeed="15.41" duration="42.00" routeLength="375.13" waitingTime="6.00" waitingCount="1" stopTime="0.00" timeLoss="16.65" rerouteNo="0" devices="tripinfo_103" vType="DEFAULT_VEHTYPE" speedFactor="1.15" vaporized=""/>
    <tripinfo id="35" depart="15.00" departLane="6_3way_A3to3way_B4_0" departPos="5.10" departSpeed="0.00" departDelay="0.30" arrival="88.00" arrivalLane="14_3way_C4to3way_D4_0" arrivalPos="185.60" arrivalSpeed="12.36" duration="73.00" routeLength="783.70" waitingTime="2.00" waitingCount="1" stopTime="0.00" timeLoss="13.12" rerouteNo="0" devices="tripinfo_35" vType="DEFAULT_VEHTYPE" speedFactor="0.94" vaporized=""/>
    <tripinfo id="54" depart="24.00" departLane="25_4way_B1to4way_B2_0" departPos="5.10" departSpeed="0.00" departDelay="1.32" arrival="88.00" arrivalLane="27_4way_B2to4way_B3_0" arrivalPos="185.60" arrivalSpeed="5.93" duration="64.00" routeLength="380.50" waitingTime="24.00" waitingCount="2" stopTime="0.00" timeLoss="38.37" rerouteNo="0" devices="tripinfo_54" vType="DEFAULT_VEHTYPE" speedFactor="1.07" vaporized=""/>
    <tripinfo id="3" depart="2.00" departLane="27_4way_B3to4way_B2_0" departPos="5.10" departSpeed="0.00" departDelay="0.74" arrival="89.00" arrivalLane="12_3way_C0to3way_D0_0" arrivalPos="185.60" arrivalSpeed="12.59" duration="87.00" routeLength="975.13" waitingTime="0.00" waitingCount="0" stopTime="0.00" timeLoss="9.55" rerouteNo="0" devices="tripinfo_3" vType="DEFAULT_VEHTYPE" speedFactor="0.91" vaporized=""/>
    <tripinfo id="80" depart="34.00" departLane="11_3way_B4to4way_B3_0" departPos="5.10" departSpeed="0.00" departDelay="0.40" arrival="91.00" arrivalLane="27_4way_B3to4way_B2_0" arrivalPos="185.60" arrivalSpeed="10.69" duration="57.00" routeLength="380.50" waitingTime="12.00" waitingCount="1" stopTime="0.00" timeLoss="21.20" rerouteNo="0" devices="tripinfo_80" vType="DEFAULT_VEHTYPE" speedFactor="0.78" vaporized=""/>
    <tripinfo id="168" depart="75.00" departLane="12_3way_C0to3way_D0_0" departPos="5.10" departSpeed="0.00" departDelay="4.44" arrival="91.00" arrivalLane="12_3way_C0to3way_D0_0" arrivalPos="185.60" arrivalSpeed="14.74" duration="16.00" routeLength="180.50" waitingTime="0.00" waitingCount="0" stopTime="0.00" timeLoss="3.70" rerouteNo="0" devices="tripinfo_168" vType="DEFAULT_VEHTYPE" speedFactor="1.10" vaporized=""/>
    <tripinfo id="172" depart="73.00" departLane="11_4way_B3to3way_B4_0" departPos="5.10" departSpeed="0.00" departDelay="0.76" arrival="91.00" arrivalLane="11_4way_B3to3way_B4_0" arrivalPos="185.60" arrivalSpeed="12.44" duration="18.00" routeLength="180.50" waitingTime="0.00" waitingCount="0" stopTime="0.00" timeLoss="3.46" rerouteNo="0" devices="tripinfo_172" vType="DEFAULT_VEHTYPE" speedFactor="0.92" vaporized=""/>
    <tripinfo id="153" depart="65.00" departLane="27_4way_B2to4way_B3_0" departPos="5.10" departSpeed="0.00" departDelay="0.74" arrival="92.00" arrivalLane="27_4way_B2to4way_B3_0" arrivalPos="185.60" arrivalSpeed="9.29" duration="27.00" routeLength="180.50" waitingTime="2.00" waitingCount="1" stopTime="0.00" timeLoss="12.38" rerouteNo="0" devices="tripinfo_153" vType="DEFAULT_VEHTYPE" speedFactor="0.90" vaporized=""/>
    <tripinfo id="37" depart="16.00" departLane="20_3way_E1to3way_E2_0" departPos="5.10" departSpeed="0.00" departDelay="0.46" arrival="93.00" arrivalLane="22_3way_E2to3way_E3_0" arrivalPos="185.60" arrivalSpeed="7.54" duration="77.00" routeLength="380.50" waitingTime="34.00" waitingCount="1" stopTime="0.00" timeLoss="49.18" rerouteNo="0" devices="tripinfo_37" vType="DEFAULT_VEHTYPE" speedFactor="0.99" vaporized=""/>
    <tripinfo id="74" depart="32.00" departLane="9_3way_B0to4way_B1_0" departPos="5.10" departSpeed="0.00" departDelay="0.92" arrival="95.00" arrivalLane="28_4way_B2to4way_C2_0" arrivalPos="185.60" arrivalSpeed="11.22" duration="63.00" routeLength="580.30" waitingTime="1.00" waitingCount="1" stopTime="0.00" timeLoss="10.27" rerouteNo="0" devices="tripinfo_74" vType="DEFAULT_VEHTYPE" speedFactor="0.81" vaporized=""/>
    <tripinfo id="104" depart="44.00" departLane="20_3way_E1to3way_E2_0" departPos="5.10" departSpeed="0.00" departDelay="0.32" arrival="96.00" arrivalLane="22_3way_E2to3way_E3_0" arrivalPos="185.60" arrivalSpeed="12.91" duration="52.00" routeLength="380.50" waitingTime="10.00" waitingCount="1" stopTime="0.00" timeLoss="22.29" rerouteNo="0" devices="tripinfo_104" vType="DEFAULT_VEHTYPE" speedFactor="0.95" vaporized=""/>
    <tripinfo id="112" depart="48.00" departLane="2_3way_A1to3way_B0_0" departPos="5.10" departSpeed="0.00" departDelay="0.96" arrival="97.00" arrivalLane="8_3way_B0to3way_C0_0" arrivalPos="185.60" arrivalSpeed="12.85" duration="49.00" routeLength="577.30" waitingTime="0.00" waitingCount="0" stopTime="0.00" timeLoss="4.72" rerouteNo="0" devices="tripinfo_112" vType="DEFAULT_VEHTYPE" speedFactor="0.95" vaporized=""/>
    <tripinfo id="81" depart="35.00" departLane="1_3way_A2to3way_A1_0" departPos="5.10" departSpeed="0.00" departDelay="0.98" arrival="99.00" arrivalLane="8_3way_B0to3way_C0_0" arrivalPos="185.60" arrivalSpeed="14.38" duration="64.00" routeLength="777.30" waitingTime="0.00" waitingCount="0" stopTime="0.00" timeLoss="9.75" rerouteNo="0" devices="tripinfo_81" vType="DEFAULT_VEHTYPE" speedFactor="1.05" vaporized=""/>
    <tripinfo id="131" depart="56.00" departLane="29_4way_B3to4way_C3_0" departPos="5.10" departSpeed="0.00" departDelay="0.98" arrival="99.00" arrivalLane="34_4way_C3to4way_D3_0" arrivalPos="185.60" arrivalSpeed="10.84" duration="43.00" routeLength="380.50" waitingTime="0.00" waitingCount="0" stopTime="0.00" timeLoss="8.94" rerouteNo="0" devices="tripinfo_131" vType="DEFAULT_VEHTYPE" speedFactor="0.82" vaporized=""/>