<?xml version="1.0" encoding="UTF-8"?>

<!-- generated on 2023-08-12 16:35:21 by Eclipse SUMO sumo Version 1.12.0
<configuration xmlns:xsi="http://www.w3.org/2001/XMLSchema-instance" xsi:noNamespaceSchemaLocation="http://sumo.dlr.de/xsd/sumoConfiguration.xsd">

    <input>
        <net-file value="../../data_generation/sq.net.xml"/>
        <route-files value="../../data_generation/sq.rou.xml"/>
    </input>

    <output>
        <tripinfo-output value="tripinfo.xml"/>
        <statistic-output value="statistic.xml"/>
    </output>

    <time>
        <begin value="0"/>
        <end value="3600"/>
    </time>

    <processing>
        <time-to-teleport value="-1"/>
    </processing>

    <traci_server>
        <remote-port value="41367"/>
    </traci_server>

    <random_number>
        <seed value="1395"/>
    </random_number>

    <gui_only>
        <gui-settings-file value="../../data_generation/view_HY_0402.xml"/>
    </gui_only>

</configuration>
-->

<tripinfos xmlns:xsi="http://www.w3.org/2001/XMLSchema-instance" xsi:noNamespaceSchemaLocation="http://sumo.dlr.de/xsd/tripinfo_file.xsd">
    <tripinfo id="22" depart="2.00" departLane="1159_4way_90to4way_65_0" departPos="5.10" departSpeed="0.00" departDelay="0.24" arrival="19.00" arrivalLane="777_4way_65to4way_40_0" arrivalPos="85.60" arrivalSpeed="12.93" duration="17.00" routeLength="180.50" waitingTime="0.00" waitingCount="0" stopTime="0.00" timeLoss="3.66" rerouteNo="0" devices="tripinfo_22" vType="DEFAULT_VEHTYPE" speedFactor="1.00" vaporized=""/>
    <tripinfo id="198" depart="16.00" departLane="689_4way_381to4way_356_0" departPos="5.10" departSpeed="0.00" departDelay="0.16" arrival="26.00" arrivalLane="689_4way_381to4way_356_0" arrivalPos="85.60" arrivalSpeed="11.78" duration="10.00" routeLength="80.50" waitingTime="0.00" waitingCount="0" stopTime="0.00" timeLoss="3.24" rerouteNo="0" devices="tripinfo_198" vType="DEFAULT_VEHTYPE" speedFactor="0.87" vaporized=""/>
    <tripinfo id="213" depart="18.00" departLane="97_3way_474to3way_449_0" departPos="5.10" departSpeed="0.00" departDelay="0.96" arrival="38.00" arrivalLane="98_3way_449to4way_448_0" arrivalPos="85.60" arrivalSpeed="12.49" duration="20.00" routeLength="175.13" waitingTime="0.00" waitingCount="0" stopTime="0.00" timeLoss="4.27" rerouteNo="0" devices="tripinfo_213" vType="DEFAULT_VEHTYPE" speedFactor="0.91" vaporized=""/>
    <tripinfo id="326" depart="27.00" departLane="627_4way_326to4way_327_0" departPos="5.10" departSpeed="0.00" departDelay="0.92" arrival="44.00" arrivalLane="629_4way_327to4way_328_0" arrivalPos="85.60" arrivalSpeed="13.13" duration="17.00" routeLength="180.50" waitingTime="0.00" waitingCount="0" stopTime="0.00" timeLoss="3.58" rerouteNo="0" devices="tripinfo_326" vType="DEFAULT_VEHTYPE" speedFactor="1.00" vaporized=""/>
    <tripinfo id="335" depart="27.00" departLane="790_4way_408to4way_407_0" departPos="5.10" departSpeed="0.00" departDelay="0.20" arrival="56.00" arrivalLane="842_4way_432to4way_457_0" arrivalPos="85.60" arrivalSpeed="11.84" duration="29.00" routeLength="275.13" waitingTime="0.00" waitingCount="0" stopTime="0.00" timeLoss="5.92" rerouteNo="0" devices="tripinfo_335" vType="DEFAULT_VEHTYPE" speedFactor="0.90" vaporized=""/>
    <tripinfo id="443" depart="37.00" departLane="1005_4way_516to4way_517_0" departPos="5.10" departSpeed="0.00" departDelay="1.56" arrival="57.00" arrivalLane="961_4way_517to4way_492_0" arrivalPos="85.60" arrivalSpeed="11.99" duration="20.00" routeLength="175.13" waitingTime="0.00" waitingCount="0" stopTime="0.00" timeLoss="4.48" rerouteNo="0" devices="tripinfo_443" vType="DEFAULT_VEHTYPE" speedFactor="0.88" vaporized=""/>
    <tripinfo id="576" depart="47.00" departLane="302_4way_154to4way_153_0" departPos="5.10" departSpeed="0.00" departDelay="0.92" arrival="57.00" arrivalLane="302_4way_154to4way_153_0" arrivalPos="85.60" arrivalSpeed="13.10" duration="10.00" routeLength="80.50" waitingTime="0.00" waitingCount="0" stopTime="0.00" timeLoss="3.59" rerouteNo="0" devices="tripinfo_576" vType="DEFAULT_VEHTYPE" speedFactor="1.00" vaporized=""/>
    <tripinfo id="610" depart="49.00" departLane="626_4way_323to4way_348_0" departPos="5.10" departSpeed="0.00" departDelay="0.20" arrival="59.00" arrivalLane="626_4way_323to4way_348_0" arrivalPos="85.60" arrivalSpeed="12.49" duration="10.00" routeLength="80.50" waitingTime="0.00" waitingCount="0" stopTime="0.00" timeLoss="3.20" rerouteNo="0" devices="tripinfo_610" vType="DEFAULT_VEHTYPE" speedFactor="0.93" vaporized=""/>
    <tripinfo id="253" depart="21.00" departLane="41_3way_224to3way_199_0" departPos="5.10" departSpeed="0.00" departDelay="0.76" arrival="64.00" arrivalLane="381_4way_196to4way_195_0" arrivalPos="85.60" arrivalSpeed="13.56" duration="43.00" routeLength="475.13" waitingTime="0.00" waitingCount="0" stopTime="0.00" timeLoss="6.48" rerouteNo="0" devices="tripinfo_253" vType="DEFAULT_VEHTYPE" speedFactor="0.99" vaporized=""/>
    <tripinfo id="438" depart="36.00" departLane="740_4way_381to4way_406_0" departPos="5.10" departSpeed="0.00" departDelay="0.96" arrival="65.00" arrivalLane="790_4way_407to4way_408_0" arrivalPos="85.60" arrivalSpeed="12.21" duration="29.00" routeLength="275.13" waitingTime="0.00" waitingCount="0" stopTime="0.00" timeLoss="6.19" rerouteNo="0" devices="tripinfo_438" vType="DEFAULT_VEHTYPE" speedFactor="0.92" vaporized=""/>
    <tripinfo id="531" depart="43.00" departLane="176_3way_8to3way_7_0" departPos="5.10" departSpeed="0.00" departDelay="0.52" arrival="73.00" arrivalLane="89_3way_5to3way_4_0" arrivalPos="85.60" arrivalSpeed="14.11" duration="30.00" routeLength="380.50" waitingTime="0.00" waitingCount="0" stopTime="0.00" timeLoss="4.37" rerouteNo="0" devices="tripinfo_531" vType="DEFAULT_VEHTYPE" speedFactor="1.11" vaporized=""/>
    <tripinfo id="163" depart="14.00" departLane="860_4way_465to4way_440_0" departPos="5.10" departSpeed="0.00" departDelay="0.96" arrival="75.00" arrivalLane="560_4way_315to4way_290_0" arrivalPos="85.60" arrivalSpeed="13.08" duration="61.00" routeLength="680.50" waitingTime="0.00" waitingCount="0" stopTime="0.00" timeLoss="8.99" rerouteNo="0" devices="tripinfo_163" vType="DEFAULT_VEHTYPE" speedFactor="0.94" vaporized=""/>
    <tripinfo id="692" depart="56.00" departLane="650_4way_361to4way_336_0" departPos="5.10" departSpeed="0.00" departDelay="0.64" arrival="75.00" arrivalLane="647_4way_336to4way_335_0" arrivalPos="85.60" arrivalSpeed="15.20" duration="19.00" routeLength="175.13" waitingTime="0.00" waitingCount="0" stopTime="0.00" timeLoss="6.77" rerouteNo="0" devices="tripinfo_692" vType="DEFAULT_VEHTYPE" speedFactor="1.13" vaporized=""/>
    <tripinfo id="115" depart="10.00" departLane="881_4way_452to4way_477_0" departPos="5.10" departSpeed="0.00" departDelay="0.80" arrival="77.00" arrivalLane="975_4way_502to4way_503_0" arrivalPos="85.60" arrivalSpeed="12.73" duration="67.00" routeLength="275.13" waitingTime="36.00" waitingCount="1" stopTime="0.00" timeLoss="44.55" rerouteNo="0" devices="tripinfo_115" vType="DEFAULT_VEHTYPE" speedFactor="0.92" vaporized=""/>
    <tripinfo id="128" depart="11.00" departLane="900_4way_462to4way_461_0" departPos="5.10" departSpeed="0.00" departDelay="0.76" arrival="77.00" arrivalLane="996_4way_511to4way_536_0" arrivalPos="85.60" arrivalSpeed="14.13" duration="66.00" routeLength="375.13" waitingTime="27.00" waitingCount="1" stopTime="0.00" timeLoss="38.83" rerouteNo="0" devices="tripinfo_128" vType="DEFAULT_VEHTYPE" speedFactor="1.02" vaporized=""/>
    <tripinfo id="493" depart="40.00" departLane="617_4way_319to4way_344_0" departPos="5.10" departSpeed="0.00" departDelay="0.56" arrival="77.00" arrivalLane="716_4way_369to4way_370_0" arrivalPos="85.60" arrivalSpeed="12.07" duration="37.00" routeLength="275.13" waitingTime="6.00" waitingCount="1" stopTime="0.00" timeLoss="15.22" rerouteNo="0" devices="tripinfo_493" vType="DEFAULT_VEHTYPE" speedFactor="0.94" vaporized=""/>
    <tripinfo id="332" depart="27.00" departLane="941_4way_482to4way_507_0" departPos="5.10" departSpeed="0.00" departDelay="0.44" arrival="78.00" arrivalLane="986_4way_507to4way_532_0" arrivalPos="85.60" arrivalSpeed="11.08" duration="51.00" routeLength="180.50" waitingTime="26.00" waitingCount="1" stopTime="0.00" timeLoss="35.00" rerouteNo="0" devices="tripinfo_332" vType="DEFAULT_VEHTYPE" speedFactor="0.83" vaporized=""/>
    <tripinfo id="351" depart="29.00" departLane="163_3way_617to3way_618_0" departPos="5.10" departSpeed="0.00" departDelay="0.92" arrival="78.00" arrivalLane="165_3way_618to3way_619_0" arrivalPos="85.60" arrivalSpeed="11.74" duration="49.00" routeLength="180.50" waitingTime="26.00" waitingCount="1" stopTime="0.00" timeLoss="33.61" rerouteNo="0" devices="tripinfo_351" vType="DEFAULT_VEHTYPE" speedFactor="0.85" vaporized=""/>
    <tripinfo id="479" depart="41.00" departLane="876_4way_46to4way_45_0" departPos="5.10" departSpeed="0.00" departDelay="2.68" arrival="79.00" arrivalLane="877_4way_45to4way_70_0" arrivalPos="85.60" arrivalSpeed="14.11" duration="38.00" routeLength="175.13" waitingTime="16.00" waitingCount="1" stopTime="0.00" timeLoss="25.27" rerouteNo="0" devices="tripinfo_479" vType="DEFAULT_VEHTYPE" speedFactor="1.04" vaporized=""/>
    <tripinfo id="637" depart="51.00" departLane="286_4way_142to4way_167_0" departPos="5.10" departSpeed="0.00" departDelay="0.04" arrival="80.00" arrivalLane="330_4way_167to4way_168_0" arrivalPos="85.60" arrivalSpeed="11.83" duration="29.00" routeLength="175.13" waitingTime="6.00" waitingCount="1" stopTime="0.00" timeLoss="14.39" rerouteNo="0" devices="tripinfo_637" vType="DEFAULT_VEHTYPE" speedFactor="0.94" vaporized=""/>
    <tripinfo id="726" depart="59.00" departLane="920_4way_471to4way_470_0" departPos="5.10" departSpeed="0.00" departDelay="0.92" arrival="80.00" arrivalLane="921_4way_470to4way_495_0" arrivalPos="85.60" arrivalSpeed="11.59" duration="21.00" routeLength="175.13" waitingTime="0.00" waitingCount="0" stopTime="0.00" timeLoss="4.96" rerouteNo="0" devices="tripinfo_726" vType="DEFAULT_VEHTYPE" speedFactor="0.85" vaporized=""/>
    <tripinfo id="334" depart="27.00" departLane="325_4way_164to4way_189_0" departPos="5.10" departSpeed="0.00" departDelay="0.28" arrival="82.00" arrivalLane="371_4way_190to4way_191_0" arrivalPos="85.60" arrivalSpeed="16.22" duration="55.00" routeLength="275.13" waitingTime="28.00" waitingCount="1" stopTime="0.00" timeLoss="37.36" rerouteNo="0" devices="tripinfo_334" vType="DEFAULT_VEHTYPE" speedFactor="1.19" vaporized=""/>
    <tripinfo id="268" depart="22.00" departLane="860_4way_465to4way_440_0" departPos="5.10" departSpeed="0.00" departDelay="0.56" arrival="83.00" arrivalLane="702_4way_363to4way_362_0" arrivalPos="85.60" arrivalSpeed="16.83" duration="61.00" routeLength="675.13" waitingTime="5.00" waitingCount="1" stopTime="0.00" timeLoss="19.83" rerouteNo="0" devices="tripinfo_268" vType="DEFAULT_VEHTYPE" speedFactor="1.22" vaporized=""/>
    <tripinfo id="168" depart="14.00" departLane="1114_4way_82to4way_57_0" departPos="5.10" departSpeed="0.00" departDelay="0.56" arrival="84.00" arrivalLane="557_4way_30to4way_29_0" arrivalPos="85.60" arrivalSpeed="14.48" duration="70.00" routeLength="475.13" waitingTime="23.00" waitingCount="1" stopTime="0.00" timeLoss="37.09" rerouteNo="0" devices="tripinfo_168" vType="DEFAULT_VEHTYPE" speedFactor="1.10" vaporized=""/>
    <tripinfo id="212" depart="17.00" departLane="316_4way_160to4way_161_0" departPos="5.10" departSpeed="0.00" departDelay="0.04" arrival="84.00" arrivalLane="322_4way_163to4way_164_0" arrivalPos="85.60" arrivalSpeed="13.57" duration="67.00" routeLength="380.50" waitingTime="29.00" waitingCount="1" stopTime="0.00" timeLoss="39.63" rerouteNo="0" devices="tripinfo_212" vType="DEFAULT_VEHTYPE" speedFactor="1.00" vaporized=""/>
    <tripinfo id="452" depart="37.00" departLane="923_4way_496to4way_471_0" departPos="5.10" departSpeed="0.00" departDelay="0.84" arrival="85.00" arrivalLane="820_4way_421to4way_420_0" arrivalPos="85.60" arrivalSpeed="14.52" duration="48.00" routeLength="375.13" waitingTime="9.00" waitingCount="1" stopTime="0.00" timeLoss="22.52" rerouteNo="0" devices="tripinfo_452" vType="DEFAULT_VEHTYPE" speedFactor="1.09" vaporized=""/>
    <tripinfo id="262" depart="21.00" departLane="619_4way_57to4way_32_0" departPos="5.10" departSpeed="0.00" departDelay="0.04" arrival="86.00" arrivalLane="109_3way_6to3way_5_0" arrivalPos="85.60" arrivalSpeed="11.95" duration="65.00" routeLength="375.13" waitingTime="25.00" waitingCount="1" stopTime="0.00" timeLoss="34.58" rerouteNo="0" devices="tripinfo_262" vType="DEFAULT_VEHTYPE" speedFactor="0.93" vaporized=""/>
    <tripinfo id="841" depart="68.00" departLane="45_3way_21to3way_20_0" departPos="5.10" departSpeed="0.00" departDelay="0.72" arrival="86.00" arrivalLane="46_3way_20to4way_45_0" arrivalPos="85.60" arrivalSpeed="13.84" duration="18.00" routeLength="175.13" waitingTime="0.00" waitingCount="0" stopTime="0.00" timeLoss="5.08" rerouteNo="0" devices="tripinfo_841" vType="DEFAULT_VEHTYPE" speedFactor="1.02" vaporized=""/>
    <tripinfo id="370" depart="30.00" departLane="297_4way_148to4way_173_0" departPos="5.10" departSpeed="0.00" departDelay="0.40" arrival="87.00" arrivalLane="42_4way_198to3way_199_0" arrivalPos="85.60" arrivalSpeed="13.26" duration="57.00" routeLength="275.13" waitingTime="24.00" waitingCount="1" stopTime="0.00" timeLoss="35.25" rerouteNo="0" devices="tripinfo_370" vType="DEFAULT_VEHTYPE" speedFactor="0.96" vaporized=""/>
    <tripinfo id="388" depart="32.00" departLane="362_4way_210to4way_185_0" departPos="5.10" departSpeed="0.00" departDelay="0.96" arrival="87.00" arrivalLane="314_4way_160to4way_159_0" arrivalPos="85.60" arrivalSpeed="12.51" duration="55.00" routeLength="275.13" waitingTime="23.00" waitingCount="1" stopTime="0.00" timeLoss="32.92" rerouteNo="0" devices="tripinfo_388" vType="DEFAULT_VEHTYPE" speedFactor="0.95" vaporized=""/>
    <tripinfo id="878" depart="71.00" departLane="1066_4way_547to4way_546_0" departPos="5.10" departSpeed="0.00" departDelay="0.76" arrival="87.00" arrivalLane="1064_4way_546to4way_545_0" arrivalPos="85.60" arrivalSpeed="15.98" duration="16.00" routeLength="180.50" waitingTime="0.00" waitingCount="0" stopTime="0.00" timeLoss="3.85" rerouteNo="0" devices="tripinfo_878" vType="DEFAULT_VEHTYPE" speedFactor="1.15" vaporized=""/>
    <tripinfo id="381" depart="31.00" departLane="1091_4way_56to4way_57_0" departPos="5.10" departSpeed="0.00" departDelay="0.52" arrival="90.00" arrivalLane="658_4way_59to4way_34_0" arrivalPos="85.60" arrivalSpeed="17.15" duration="59.00" routeLength="375.13" waitingTime="22.00" waitingCount="1" stopTime="0.00" timeLoss="36.89" rerouteNo="0" devices="tripinfo_381" vType="DEFAULT_VEHTYPE" speedFactor="1.27" vaporized=""/>
    <tripinfo id="397" depart="32.00" departLane="296_4way_147to4way_172_0" departPos="5.10" departSpeed="0.00" departDelay="0.24" arrival="93.00" arrivalLane="475_4way_247to4way_248_0" arrivalPos="85.60" arrivalSpeed="13.95" duration="61.00" routeLength="475.13" waitingTime="15.00" waitingCount="1" stopTime="0.00" timeLoss="27.63" rerouteNo="0" devices="tripinfo_397" vType="DEFAULT_VEHTYPE" speedFactor="1.05" vaporized=""/>
    <tripinfo id="554" depart="45.00" departLane="987_4way_508to4way_509_0" departPos="5.10" departSpeed="0.00" departDelay="0.68" arrival="93.00" arrivalLane="895_4way_484to4way_459_0" arrivalPos="85.60" arrivalSpeed="13.37" duration="48.00" routeLength="275.13" waitingTime="15.00" waitingCount="1" stopTime="0.00" timeLoss="26.30" rerouteNo="0" devices="tripinfo_554" vType="DEFAULT_VEHTYPE" speedFactor="0.97" vaporized=""/>
    <tripinfo id="809" depart="65.00" departLane="126_3way_575to4way_576_0" departPos="5.10" departSpeed="0.00" departDelay="0.28" arrival="93.00" arrivalLane="1023_4way_551to4way_526_0" arrivalPos="85.60" arrivalSpeed="12.82" duration="28.00" routeLength="275.13" waitingTime="0.00" waitingCount="0" stopTime="0.00" timeLoss="5.81" rerouteNo="0" devices="tripinfo_809" vType="DEFAULT_VEHTYPE" speedFactor="0.93" vaporized=""/>
    <tripinfo id="156" depart="13.00" departLane="157_3way_614to3way_615_0" departPos="5.10" departSpeed="0.00" departDelay="0.52" arrival="96.00" arrivalLane="167_3way_619to3way_620_0" arrivalPos="85.60" arrivalSpeed="11.53" duration="83.00" routeLength="580.50" waitingTime="26.00" waitingCount="1" stopTime="0.00" timeLoss="36.88" rerouteNo="0" devices="tripinfo_156" vType="DEFAULT_VEHTYPE" speedFactor="0.91" vaporized=""/>
    <tripinfo id="298" depart="24.00" departLane="843_4way_434to4way_433_0" departPos="5.10" departSpeed="0.00" departDelay="0.16" arrival="96.00" arrivalLane="840_4way_431to4way_456_0" arrivalPos="85.60" arrivalSpeed="12.07" duration="72.00" routeLength="375.13" waitingTime="31.00" waitingCount="1" stopTime="0.00" timeLoss="41.24" rerouteNo="0" devices="tripinfo_298" vType="DEFAULT_VEHTYPE" speedFactor="0.92" vaporized=""/>
    <tripinfo id="761" depart="61.00" departLane="796_4way_42to4way_41_0" departPos="5.10" departSpeed="0.00" departDelay="0.12" arrival="98.00" arrivalLane="718_4way_38to4way_37_0" arrivalPos="85.60" arrivalSpeed="14.91" duration="37.00" routeLength="480.50" waitingTime="0.00" waitingCount="0" stopTime="0.00" timeLoss="4.77" rerouteNo="0" devices="tripinfo_761" vType="DEFAULT_VEHTYPE" speedFactor="1.08" vaporized=""/>
    <tripinfo id="972" depart="83.00" departLane="109_3way_6to3way_5_0" departPos="5.10" departSpeed="0.00" departDelay="5.24" arrival="99.00" arrivalLane="89_3way_5to3way_4_0" arrivalPos="85.60" arrivalSpeed="15.35" duration="16.00" routeLength="180.50" waitingTime="0.00" waitingCount="0" stopTime="0.00" timeLoss="4.26" rerouteNo="0" devices="tripinfo_972" vType="DEFAULT_VEHTYPE" speedFactor="1.12" vaporized=""/>
    <tripinfo id="500" depart="40.00" departLane="177_3way_7to4way_32_0" departPos="5.10" departSpeed="0.00" departDelay="0.00" arrival="101.00" arrivalLane="718_4way_37to4way_38_0" arrivalPos="85.60" arrivalSpeed="12.40" duration="61.00" routeLength="675.13" waitingTime="0.00" waitingCount="0" stopTime="0.00" timeLoss="7.42" rerouteNo="0" devices="tripinfo_500" vType="DEFAULT_VEHTYPE" speedFactor="0.92" vaporized=""/>
    <tripinfo id="303" depart="25.00" departLane="532_4way_278to4way_303_0" departPos="5.10" departSpeed="0.00" departDelay="0.76" arrival="102.00" arrivalLane="782_4way_403to4way_404_0" arrivalPos="85.60" arrivalSpeed="13.95" duration="77.00" routeLength="575.13" waitingTime="21.00" waitingCount="1" stopTime="0.00" timeLoss="35.23" rerouteNo="0" devices="tripinfo_303" vType="DEFAULT_VEHTYPE" speedFactor="1.02" vaporized=""/>
    <tripinfo id="323" depart="26.00" departLane="855_4way_439to4way_440_0" departPos="5.10" departSpeed="0.00" departDelay="0.16" arrival="102.00" arrivalLane="609_4way_340to4way_315_0" arrivalPos="85.60" arrivalSpeed="15.87" duration="76.00" routeLength="575.13" waitingTime="29.00" waitingCount="1" stopTime="0.00" timeLoss="39.33" rerouteNo="0" devices="tripinfo_323" vType="DEFAULT_VEHTYPE" speedFactor="1.15" vaporized=""/>
    <tripinfo id="874" depart="70.00" departLane="305_4way_179to4way_154_0" departPos="5.10" departSpeed="0.00" departDelay="0.08" arrival="104.00" arrivalLane="255_4way_128to4way_127_0" arrivalPos="85.60" arrivalSpeed="13.75" duration="34.00" routeLength="375.13" waitingTime="0.00" waitingCount="0" stopTime="0.00" timeLoss="6.50" rerouteNo="0" devices="tripinfo_874" vType="DEFAULT_VEHTYPE" speedFactor="1.00" vaporized=""/>
    <tripinfo id="490" depart="40.00" departLane="915_4way_468to4way_493_0" departPos="5.10" departSpeed="0.00" departDelay="0.80" arrival="105.00" arrivalLane="1064_4way_545to4way_546_0" arrivalPos="85.60" arrivalSpeed="12.25" duration="65.00" routeLength="575.13" waitingTime="6.00" waitingCount="1" stopTime="0.00" timeLoss="17.65" rerouteNo="0" devices="tripinfo_490" vType="DEFAULT_VEHTYPE" speedFactor="0.91" vaporized=""/>
    <tripinfo id="937" depart="75.00" departLane="1184_4way_86to4way_85_0" departPos="5.10" departSpeed="0.00" departDelay="0.04" arrival="106.00" arrivalLane="208_4way_83to4way_108_0" arrivalPos="85.60" arrivalSpeed="15.30" duration="31.00" routeLength="375.13" waitingTime="0.00" waitingCount="0" stopTime="0.00" timeLoss="6.29" rerouteNo="0" devices="tripinfo_937" vType="DEFAULT_VEHTYPE" speedFactor="1.17" vaporized=""/>
    <tripinfo id="533" depart="43.00" departLane="1174_4way_73to4way_98_0" departPos="5.10" departSpeed="0.00" departDelay="0.36" arrival="108.00" arrivalLane="60_4way_248to3way_249_0" arrivalPos="85.60" arrivalSpeed="15.07" duration="65.00" routeLength="775.13" waitingTime="0.00" waitingCount="0" stopTime="0.00" timeLoss="12.77" rerouteNo="0" devices="tripinfo_533" vType="DEFAULT_VEHTYPE" speedFactor="1.09" vaporized=""/>
    <tripinfo id="1015" depart="82.00" departLane="112_3way_50to4way_51_0" departPos="5.10" departSpeed="0.00" departDelay="0.80" arrival="108.00" arrivalLane="3_4way_26to3way_1_0" arrivalPos="85.60" arrivalSpeed="13.82" duration="26.00" routeLength="275.13" waitingTime="0.00" waitingCount="0" stopTime="0.00" timeLoss="6.74" rerouteNo="0" devices="tripinfo_1015" vType="DEFAULT_VEHTYPE" speedFactor="1.06" vaporized=""/>
    <tripinfo id="304" depart="25.00" departLane="1083_4way_556to4way_557_0" departPos="5.10" departSpeed="0.00" departDelay="0.68" arrival="111.00" arrivalLane="1043_4way_560to4way_535_0" arrivalPos="85.60" arrivalSpeed="12.77" duration="86.00" routeLength="475.13" waitingTime="31.00" waitingCount="1" stopTime="0.00" timeLoss="50.49" rerouteNo="0" devices="tripinfo_304" vType="DEFAULT_VEHTYPE" speedFactor="1.00" vaporized=""/>
    <tripinfo id="1258" depart="101.00" departLane="785_4way_429to4way_404_0" departPos="5.10" departSpeed="0.00" departDelay="0.36" arrival="111.00" arrivalLane="785_4way_429to4way_404_0" arrivalPos="85.60" arrivalSpeed="11.71" duration="10.00" routeLength="80.50" waitingTime="0.00" waitingCount="0" stopTime="0.00" timeLoss="3.56" rerouteNo="0" devices="tripinfo_1258" vType="DEFAULT_VEHTYPE" speedFactor="0.94" vaporized=""/>
    <tripinfo id="378" depart="31.00" departLane="3_3way_1to4way_26_0" departPos="5.10" departSpeed="0.00" departDelay="0.76" arrival="113.00" arrivalLane="596_4way_31to4way_32_0" arrivalPos="85.60" arrivalSpeed="13.79" duration="82.00" routeLength="675.13" waitingTime="24.00" waitingCount="1" stopTime="0.00" timeLoss="33.88" rerouteNo="0" devices="tripinfo_378" vType="DEFAULT_VEHTYPE" speedFactor="1.03" vaporized=""/>
    <tripinfo id="455" depart="37.00" departLane="80_3way_349to4way_348_0" departPos="5.10" departSpeed="0.00" departDelay="0.60" arrival="114.00" arrivalLane="384_4way_221to4way_196_0" arrivalPos="85.60" arrivalSpeed="13.83" duration="77.00" routeLength="880.30" waitingTime="4.00" waitingCount="1" stopTime="0.00" timeLoss="16.83" rerouteNo="0" devices="tripinfo_455" vType="DEFAULT_VEHTYPE" speedFactor="1.08" vaporized=""/>
    <tripinfo id="835" depart="67.00" departLane="961_4way_492to4way_517_0" departPos="5.10" departSpeed="0.00" departDelay="0.20" arrival="118.00" arrivalLane="1143_4way_593to4way_594_0" arrivalPos="85.60" arrivalSpeed="12.82" duration="51.00" routeLength="575.13" waitingTime="0.00" waitingCount="0" stopTime="0.00" timeLoss="7.44" rerouteNo="0" devices="tripinfo_835" vType="DEFAULT_VEHTYPE" speedFactor="0.97" vaporized=""/>
    <tripinfo id="1340" depart="108.00" departLane="934_4way_504to4way_479_0" departPos="5.10" departSpeed="0.00" departDelay="0.80" arrival="118.00" arrivalLane="934_4way_504to4way_479_0" arrivalPos="85.60" arrivalSpeed="12.53" duration="10.00" routeLength="80.50" waitingTime="0.00" waitingCount="0" stopTime="0.00" timeLoss="3.30" rerouteNo="0" devices="tripinfo_1340" vType="DEFAULT_VEHTYPE" speedFactor="0.95" vaporized=""/>
    <tripinfo id="1377" depart="111.00" departLane="153_3way_612to3way_613_0" departPos="5.10" departSpeed="0.00" departDelay="0.84" arrival="120.00" arrivalLane="153_3way_612to3way_613_0" arrivalPos="85.60" arrivalSpeed="14.01" duration="9.00" routeLength="80.50" waitingTime="0.00" waitingCount="0" stopTime="0.00" timeLoss="3.48" rerouteNo="0" devices="tripinfo_1377" vType="DEFAULT_VEHTYPE" speedFactor="1.09" vaporized=""/>
    <tripinfo id="457" depart="37.00" departLane="366_4way_187to4way_212_0" departPos="5.10" departSpeed="0.00" departDelay="0.44" arrival="122.00" arrivalLane="424_4way_219to4way_220_0" arrivalPos="85.60" arrivalSpeed="15.76" duration="85.00" routeLength="875.13" waitingTime="18.00" waitingCount="1" stopTime="0.00" timeLoss="29.05" rerouteNo="0" devices="tripinfo_457" vType="DEFAULT_VEHTYPE" speedFactor="1.14" vaporized=""/>
    <tripinfo id="1186" depart="95.00" departLane="596_4way_32to4way_31_0" departPos="5.10" departSpeed="0.00" departDelay="0.12" arrival="122.00" arrivalLane="577_4way_30to4way_55_0" arrivalPos="85.60" arrivalSpeed="12.56" duration="27.00" routeLength="275.13" waitingTime="0.00" waitingCount="0" stopTime="0.00" timeLoss="5.23" rerouteNo="0" devices="tripinfo_1186" vType="DEFAULT_VEHTYPE" speedFactor="0.96" vaporized=""/>
    <tripinfo id="264" depart="22.00" departLane="1130_4way_582to4way_583_0" departPos="5.10" departSpeed="0.00" departDelay="0.88" arrival="124.00" arrivalLane="158_4way_589to3way_614_0" arrivalPos="85.60" arrivalSpeed="10.98" duration="102.00" routeLength="780.30" waitingTime="24.00" waitingCount="1" stopTime="0.00" timeLoss="36.28" rerouteNo="0" devices="tripinfo_264" vType="DEFAULT_VEHTYPE" speedFactor="0.86" vaporized=""/>
    <tripinfo id="503" depart="41.00" departLane="46_3way_20to4way_45_0" departPos="5.10" departSpeed="0.00" departDelay="0.76" arrival="127.00" arrivalLane="696_4way_37to4way_36_0" arrivalPos="85.60" arrivalSpeed="13.96" duration="86.00" routeLength="980.30" waitingTime="0.00" waitingCount="0" stopTime="0.00" timeLoss="16.34" rerouteNo="0" devices="tripinfo_503" vType="DEFAULT_VEHTYPE" speedFactor="1.04" vaporized=""/>
    <tripinfo id="89" depart="8.00" departLane="39_3way_20to3way_19_0" departPos="5.10" departSpeed="0.00" departDelay="0.88" arrival="130.00" arrivalLane="30_3way_16to4way_41_0" arrivalPos="85.60" arrivalSpeed="5.68" duration="122.00" routeLength="475.13" waitingTime="68.00" waitingCount="2" stopTime="0.00" timeLoss="84.65" rerouteNo="0" devices="tripinfo_89" vType="DEFAULT_VEHTYPE" speedFactor="0.93" vaporized=""/>
    <tripinfo id="921" depart="74.00" departLane="530_4way_277to4way_302_0" departPos="5.10" departSpeed="0.00" departDelay="0.32" arrival="132.00" arrivalLane="827_4way_427to4way_426_0" arrivalPos="85.60" arrivalSpeed="14.97" duration="58.00" routeLength="680.30" waitingTime="0.00" waitingCount="0" stopTime="0.00" timeLoss="13.91" rerouteNo="0" devices="tripinfo_921" vType="DEFAULT_VEHTYPE" speedFactor="1.15" vaporized=""/>
    <tripinfo id="207" depart="17.00" departLane="975_4way_503to4way_502_0" departPos="5.10" departSpeed="0.00" departDelay="0.44" arrival="136.00" arrivalLane="1076_4way_552to4way_577_0" arrivalPos="85.60" arrivalSpeed="16.73" duration="119.00" routeLength="375.13" waitingTime="77.00" waitingCount="2" stopTime="0.00" timeLoss="96.56" rerouteNo="0" devices="tripinfo_207" vType="DEFAULT_VEHTYPE" speedFactor="1.24" vaporized=""/>
    <tripinfo id="68" depart="6.00" departLane="707_4way_389to4way_364_0" departPos="5.10" departSpeed="0.00" departDelay="0.56" arrival="137.00" arrivalLane="602_4way_313to4way_312_0" arrivalPos="85.60" arrivalSpeed="15.01" duration="131.00" routeLength="475.13" waitingTime="79.00" waitingCount="2" stopTime="0.00" timeLoss="98.34" rerouteNo="0" devices="tripinfo_68" vType="DEFAULT_VEHTYPE" speedFactor="1.09" vaporized=""/>
    <tripinfo id="222" depart="18.00" departLane="444_4way_256to4way_231_0" departPos="5.10" departSpeed="0.00" departDelay="0.24" arrival="137.00" arrivalLane="347_4way_179to4way_178_0" arrivalPos="85.60" arrivalSpeed="14.70" duration="119.00" routeLength="575.13" waitingTime="61.00" waitingCount="2" stopTime="0.00" timeLoss="80.00" rerouteNo="0" devices="tripinfo_222" vType="DEFAULT_VEHTYPE" speedFactor="1.10" vaporized=""/>
    <tripinfo id="325" depart="26.00" departLane="752_4way_412to4way_387_0" departPos="5.10" departSpeed="0.00" departDelay="0.00" arrival="137.00" arrivalLane="547_4way_286to4way_285_0" arrivalPos="85.60" arrivalSpeed="13.58" duration="111.00" routeLength="675.13" waitingTime="43.00" waitingCount="2" stopTime="0.00" timeLoss="62.00" rerouteNo="0" devices="tripinfo_325" vType="DEFAULT_VEHTYPE" speedFactor="1.01" vaporized=""/>
    <tripinfo id="454" depart="37.00" departLane="118_3way_525to4way_526_0" departPos="5.10" departSpeed="0.00" departDelay="0.68" arrival="137.00" arrivalLane="828_4way_451to4way_426_0" arrivalPos="85.60" arrivalSpeed="13.58" duration="100.00" routeLength="475.13" waitingTime="47.00" waitingCount="2" stopTime="0.00" timeLoss="65.01" rerouteNo="0" devices="tripinfo_454" vType="DEFAULT_VEHTYPE" speedFactor="1.01" vaporized=""/>
    <tripinfo id="669" depart="54.00" departLane="392_4way_204to4way_203_0" departPos="5.10" departSpeed="0.00" departDelay="0.48" arrival="137.00" arrivalLane="438_4way_228to4way_253_0" arrivalPos="85.60" arrivalSpeed="14.80" duration="83.00" routeLength="275.13" waitingTime="51.00" waitingCount="1" stopTime="0.00" timeLoss="63.70" rerouteNo="0" devices="tripinfo_669" vType="DEFAULT_VEHTYPE" speedFactor="1.08" vaporized=""/>
    <tripinfo id="960" depart="80.00" departLane="109_3way_6to3way_5_0" departPos="5.10" departSpeed="0.00" departDelay="3.20" arrival="137.00" arrivalLane="44_3way_2to4way_27_0" arrivalPos="85.60" arrivalSpeed="13.53" duration="57.00" routeLength="475.13" waitingTime="12.00" waitingCount="1" stopTime="0.00" timeLoss="21.67" rerouteNo="0" devices="tripinfo_960" vType="DEFAULT_VEHTYPE" speedFactor="1.01" vaporized=""/>