<?xml version="1.0" encoding="UTF-8"?>

<!-- generated on 2023-02-25 03:09:08 by Eclipse SUMO sumo Version 1.12.0
<configuration xmlns:xsi="http://www.w3.org/2001/XMLSchema-instance" xsi:noNamespaceSchemaLocation="http://sumo.dlr.de/xsd/sumoConfiguration.xsd">

    <input>
        <net-file value="../../data_generation/sq.net.xml"/>
        <route-files value="../../data_generation/sq.rou.xml"/>
    </input>

    <output>
        <tripinfo-output value="tripinfo.xml"/>
        <statistic-output value="statistic.xml"/>
    </output>

    <time>
        <begin value="0"/>
        <end value="3600"/>
    </time>

    <processing>
        <time-to-teleport value="-1"/>
    </processing>

    <traci_server>
        <remote-port value="49925"/>
    </traci_server>

    <random_number>
        <seed value="1395"/>
    </random_number>

    <gui_only>
        <gui-settings-file value="../../data_generation/view_HY_0402.xml"/>
    </gui_only>

</configuration>
-->

<tripinfos xmlns:xsi="http://www.w3.org/2001/XMLSchema-instance" xsi:noNamespaceSchemaLocation="http://sumo.dlr.de/xsd/tripinfo_file.xsd">
    <tripinfo id="1" depart="1.00" departLane="9_3way_B0to4way_B1_0" departPos="5.10" departSpeed="0.00" departDelay="0.58" arrival="18.00" arrivalLane="9_3way_B0to4way_B1_0" arrivalPos="185.60" arrivalSpeed="13.69" duration="17.00" routeLength="180.50" waitingTime="0.00" waitingCount="0" stopTime="0.00" timeLoss="3.89" rerouteNo="0" devices="tripinfo_1" vType="DEFAULT_VEHTYPE" speedFactor="1.04" vaporized=""/>
    <tripinfo id="16" depart="7.00" departLane="3_4way_B1to3way_A1_0" departPos="5.10" departSpeed="0.00" departDelay="0.28" arrival="26.00" arrivalLane="3_4way_B1to3way_A1_0" arrivalPos="185.60" arrivalSpeed="11.51" duration="19.00" routeLength="180.50" waitingTime="0.00" waitingCount="0" stopTime="0.00" timeLoss="4.29" rerouteNo="0" devices="tripinfo_16" vType="DEFAULT_VEHTYPE" speedFactor="0.90" vaporized=""/>
    <tripinfo id="24" depart="11.00" departLane="10_3way_B4to3way_C4_0" departPos="5.10" departSpeed="0.00" departDelay="0.92" arrival="28.00" arrivalLane="10_3way_B4to3way_C4_0" arrivalPos="185.60" arrivalSpeed="12.81" duration="17.00" routeLength="180.50" waitingTime="0.00" waitingCount="0" stopTime="0.00" timeLoss="3.02" rerouteNo="0" devices="tripinfo_24" vType="DEFAULT_VEHTYPE" speedFactor="0.97" vaporized=""/>
    <tripinfo id="21" depart="9.00" departLane="22_3way_E2to3way_E3_0" departPos="5.10" departSpeed="0.00" departDelay="0.18" arrival="29.00" arrivalLane="22_3way_E2to3way_E3_0" arrivalPos="185.60" arrivalSpeed="10.93" duration="20.00" routeLength="180.50" waitingTime="0.00" waitingCount="0" stopTime="0.00" timeLoss="3.39" rerouteNo="0" devices="tripinfo_21" vType="DEFAULT_VEHTYPE" speedFactor="0.82" vaporized=""/>
    <tripinfo id="2" depart="1.00" departLane="31_4way_C1to4way_D1_0" departPos="5.10" departSpeed="0.00" departDelay="0.16" arrival="32.00" arrivalLane="21_4way_D1to3way_E1_0" arrivalPos="185.60" arrivalSpeed="14.00" duration="31.00" routeLength="380.50" waitingTime="0.00" waitingCount="0" stopTime="0.00" timeLoss="4.17" rerouteNo="0" devices="tripinfo_2" vType="DEFAULT_VEHTYPE" speedFactor="1.04" vaporized=""/>
    <tripinfo id="45" depart="19.00" departLane="3_3way_A1to4way_B1_0" departPos="5.10" departSpeed="0.00" departDelay="0.10" arrival="36.00" arrivalLane="3_3way_A1to4way_B1_0" arrivalPos="185.60" arrivalSpeed="13.33" duration="17.00" routeLength="180.50" waitingTime="0.00" waitingCount="0" stopTime="0.00" timeLoss="3.45" rerouteNo="0" devices="tripinfo_45" vType="DEFAULT_VEHTYPE" speedFactor="1.00" vaporized=""/>
    <tripinfo id="15" depart="7.00" departLane="8_3way_B0to3way_C0_0" departPos="5.10" departSpeed="0.00" departDelay="0.70" arrival="38.00" arrivalLane="12_3way_C0to3way_D0_0" arrivalPos="185.60" arrivalSpeed="13.82" duration="31.00" routeLength="380.50" waitingTime="0.00" waitingCount="0" stopTime="0.00" timeLoss="4.75" rerouteNo="0" devices="tripinfo_15" vType="DEFAULT_VEHTYPE" speedFactor="1.05" vaporized=""/>
    <tripinfo id="9" depart="4.00" departLane="33_4way_C2to4way_D2_0" departPos="5.10" departSpeed="0.00" departDelay="0.22" arrival="41.00" arrivalLane="36_4way_D2to4way_D3_0" arrivalPos="185.60" arrivalSpeed="12.15" duration="37.00" routeLength="375.13" waitingTime="0.00" waitingCount="0" stopTime="0.00" timeLoss="5.98" rerouteNo="0" devices="tripinfo_9" vType="DEFAULT_VEHTYPE" speedFactor="0.91" vaporized=""/>
    <tripinfo id="22" depart="10.00" departLane="12_3way_D0to3way_C0_0" departPos="5.10" departSpeed="0.00" departDelay="0.76" arrival="42.00" arrivalLane="8_3way_C0to3way_B0_0" arrivalPos="185.60" arrivalSpeed="13.42" duration="32.00" routeLength="380.50" waitingTime="0.00" waitingCount="0" stopTime="0.00" timeLoss="4.23" rerouteNo="0" devices="tripinfo_22" vType="DEFAULT_VEHTYPE" speedFactor="1.00" vaporized=""/>
    <tripinfo id="27" depart="12.00" departLane="6_3way_A3to3way_B4_0" departPos="5.10" departSpeed="0.00" departDelay="0.66" arrival="44.00" arrivalLane="6_3way_A3to3way_B4_0" arrivalPos="388.80" arrivalSpeed="13.80" duration="32.00" routeLength="383.70" waitingTime="0.00" waitingCount="0" stopTime="0.00" timeLoss="4.47" rerouteNo="0" devices="tripinfo_27" vType="DEFAULT_VEHTYPE" speedFactor="1.03" vaporized=""/>
    <tripinfo id="63" depart="27.00" departLane="9_4way_B1to3way_B0_0" departPos="5.10" departSpeed="0.00" departDelay="0.54" arrival="44.00" arrivalLane="9_4way_B1to3way_B0_0" arrivalPos="185.60" arrivalSpeed="12.56" duration="17.00" routeLength="180.50" waitingTime="0.00" waitingCount="0" stopTime="0.00" timeLoss="3.23" rerouteNo="0" devices="tripinfo_63" vType="DEFAULT_VEHTYPE" speedFactor="0.95" vaporized=""/>
    <tripinfo id="64" depart="27.00" departLane="26_4way_C1to4way_B1_0" departPos="5.10" departSpeed="0.00" departDelay="0.12" arrival="44.00" arrivalLane="26_4way_C1to4way_B1_0" arrivalPos="185.60" arrivalSpeed="12.55" duration="17.00" routeLength="180.50" waitingTime="0.00" waitingCount="0" stopTime="0.00" timeLoss="3.41" rerouteNo="0" devices="tripinfo_64" vType="DEFAULT_VEHTYPE" speedFactor="0.96" vaporized=""/>
    <tripinfo id="71" depart="31.00" departLane="11_4way_B3to3way_B4_0" departPos="5.10" departSpeed="0.00" departDelay="1.18" arrival="47.00" arrivalLane="11_4way_B3to3way_B4_0" arrivalPos="185.60" arrivalSpeed="14.50" duration="16.00" routeLength="180.50" waitingTime="0.00" waitingCount="0" stopTime="0.00" timeLoss="3.69" rerouteNo="0" devices="tripinfo_71" vType="DEFAULT_VEHTYPE" speedFactor="1.13" vaporized=""/>
    <tripinfo id="13" depart="6.00" departLane="16_3way_E1to3way_D0_0" departPos="5.10" departSpeed="0.00" departDelay="0.54" arrival="54.00" arrivalLane="12_3way_D0to3way_C0_0" arrivalPos="185.60" arrivalSpeed="12.98" duration="48.00" routeLength="583.70" waitingTime="0.00" waitingCount="0" stopTime="0.00" timeLoss="4.53" rerouteNo="0" devices="tripinfo_13" vType="DEFAULT_VEHTYPE" speedFactor="0.98" vaporized=""/>
    <tripinfo id="53" depart="23.00" departLane="20_3way_E1to3way_E2_0" departPos="5.10" departSpeed="0.00" departDelay="0.74" arrival="54.00" arrivalLane="23_3way_E2to4way_D2_0" arrivalPos="185.60" arrivalSpeed="15.56" duration="31.00" routeLength="375.13" waitingTime="0.00" waitingCount="0" stopTime="0.00" timeLoss="8.82" rerouteNo="0" devices="tripinfo_53" vType="DEFAULT_VEHTYPE" speedFactor="1.27" vaporized=""/>
    <tripinfo id="50" depart="21.00" departLane="19_4way_D3to3way_D4_0" departPos="5.10" departSpeed="0.00" departDelay="0.00" arrival="55.00" arrivalLane="14_3way_D4to3way_C4_0" arrivalPos="185.60" arrivalSpeed="12.76" duration="34.00" routeLength="375.13" waitingTime="0.00" waitingCount="0" stopTime="0.00" timeLoss="6.39" rerouteNo="0" devices="tripinfo_50" vType="DEFAULT_VEHTYPE" speedFactor="1.01" vaporized=""/>
    <tripinfo id="18" depart="8.00" departLane="16_3way_D0to3way_E1_0" departPos="5.10" departSpeed="0.00" departDelay="0.44" arrival="56.00" arrivalLane="20_3way_E1to3way_E2_0" arrivalPos="185.60" arrivalSpeed="12.24" duration="48.00" routeLength="577.30" waitingTime="0.00" waitingCount="0" stopTime="0.00" timeLoss="4.41" rerouteNo="0" devices="tripinfo_18" vType="DEFAULT_VEHTYPE" speedFactor="0.96" vaporized=""/>
    <tripinfo id="89" depart="39.00" departLane="9_4way_B1to3way_B0_0" departPos="5.10" departSpeed="0.00" departDelay="1.62" arrival="57.00" arrivalLane="9_4way_B1to3way_B0_0" arrivalPos="185.60" arrivalSpeed="12.84" duration="18.00" routeLength="180.50" waitingTime="0.00" waitingCount="0" stopTime="0.00" timeLoss="3.40" rerouteNo="0" devices="tripinfo_89" vType="DEFAULT_VEHTYPE" speedFactor="0.93" vaporized=""/>
    <tripinfo id="94" depart="42.00" departLane="14_3way_D4to3way_C4_0" departPos="5.10" departSpeed="0.00" departDelay="2.52" arrival="58.00" arrivalLane="14_3way_D4to3way_C4_0" arrivalPos="185.60" arrivalSpeed="14.51" duration="16.00" routeLength="180.50" waitingTime="0.00" waitingCount="0" stopTime="0.00" timeLoss="3.76" rerouteNo="0" devices="tripinfo_94" vType="DEFAULT_VEHTYPE" speedFactor="1.08" vaporized=""/>
    <tripinfo id="98" depart="42.00" departLane="1_3way_A2to3way_A1_0" departPos="5.10" departSpeed="0.00" departDelay="0.84" arrival="61.00" arrivalLane="1_3way_A2to3way_A1_0" arrivalPos="185.60" arrivalSpeed="11.59" duration="19.00" routeLength="180.50" waitingTime="0.00" waitingCount="0" stopTime="0.00" timeLoss="3.96" rerouteNo="0" devices="tripinfo_98" vType="DEFAULT_VEHTYPE" speedFactor="0.88" vaporized=""/>
    <tripinfo id="23" depart="12.00" departLane="7_3way_A3to4way_B3_0" departPos="5.10" departSpeed="0.00" departDelay="2.34" arrival="66.00" arrivalLane="34_4way_C3to4way_D3_0" arrivalPos="185.60" arrivalSpeed="11.37" duration="54.00" routeLength="580.50" waitingTime="0.00" waitingCount="0" stopTime="0.00" timeLoss="5.82" rerouteNo="0" devices="tripinfo_23" vType="DEFAULT_VEHTYPE" speedFactor="0.87" vaporized=""/>
    <tripinfo id="116" depart="49.00" departLane="7_3way_A3to4way_B3_0" departPos="5.10" departSpeed="0.00" departDelay="0.28" arrival="66.00" arrivalLane="7_3way_A3to4way_B3_0" arrivalPos="185.60" arrivalSpeed="12.84" duration="17.00" routeLength="180.50" waitingTime="0.00" waitingCount="0" stopTime="0.00" timeLoss="3.35" rerouteNo="0" devices="tripinfo_116" vType="DEFAULT_VEHTYPE" speedFactor="0.99" vaporized=""/>
    <tripinfo id="69" depart="29.00" departLane="29_4way_C3to4way_B3_0" departPos="5.10" departSpeed="0.00" departDelay="0.02" arrival="68.00" arrivalLane="7_4way_B3to3way_A3_0" arrivalPos="185.60" arrivalSpeed="10.26" duration="39.00" routeLength="380.50" waitingTime="0.00" waitingCount="0" stopTime="0.00" timeLoss="4.62" rerouteNo="0" devices="tripinfo_69" vType="DEFAULT_VEHTYPE" speedFactor="0.82" vaporized=""/>
    <tripinfo id="124" depart="54.00" departLane="9_4way_B1to3way_B0_0" departPos="5.10" departSpeed="0.00" departDelay="1.92" arrival="70.00" arrivalLane="9_4way_B1to3way_B0_0" arrivalPos="185.60" arrivalSpeed="14.47" duration="16.00" routeLength="180.50" waitingTime="0.00" waitingCount="0" stopTime="0.00" timeLoss="3.89" rerouteNo="0" devices="tripinfo_124" vType="DEFAULT_VEHTYPE" speedFactor="1.11" vaporized=""/>
    <tripinfo id="111" depart="47.00" departLane="14_3way_C4to3way_D4_0" departPos="5.10" departSpeed="0.00" departDelay="0.38" arrival="71.00" arrivalLane="14_3way_C4to3way_D4_0" arrivalPos="185.60" arrivalSpeed="6.89" duration="24.00" routeLength="180.50" waitingTime="1.00" waitingCount="1" stopTime="0.00" timeLoss="8.01" rerouteNo="0" devices="tripinfo_111" vType="DEFAULT_VEHTYPE" speedFactor="0.84" vaporized=""/>
    <tripinfo id="125" depart="53.00" departLane="24_3way_E3to4way_D3_0" departPos="5.10" departSpeed="0.00" departDelay="0.50" arrival="71.00" arrivalLane="24_3way_E3to4way_D3_0" arrivalPos="185.60" arrivalSpeed="12.76" duration="18.00" routeLength="180.50" waitingTime="0.00" waitingCount="0" stopTime="0.00" timeLoss="3.51" rerouteNo="0" devices="tripinfo_125" vType="DEFAULT_VEHTYPE" speedFactor="0.95" vaporized=""/>
    <tripinfo id="122" depart="57.00" departLane="28_4way_B2to4way_C2_0" departPos="5.10" departSpeed="0.00" departDelay="5.76" arrival="73.00" arrivalLane="28_4way_B2to4way_C2_0" arrivalPos="185.60" arrivalSpeed="16.69" duration="16.00" routeLength="180.50" waitingTime="0.00" waitingCount="0" stopTime="0.00" timeLoss="4.70" rerouteNo="0" devices="tripinfo_122" vType="DEFAULT_VEHTYPE" speedFactor="1.20" vaporized=""/>
    <tripinfo id="137" depart="58.00" departLane="3_3way_A1to4way_B1_0" departPos="5.10" departSpeed="0.00" departDelay="0.46" arrival="74.00" arrivalLane="3_3way_A1to4way_B1_0" arrivalPos="185.60" arrivalSpeed="15.79" duration="16.00" routeLength="180.50" waitingTime="0.00" waitingCount="0" stopTime="0.00" timeLoss="3.65" rerouteNo="0" devices="tripinfo_137" vType="DEFAULT_VEHTYPE" speedFactor="1.14" vaporized=""/>
    <tripinfo id="28" depart="12.00" departLane="4_3way_A3to3way_A2_0" departPos="5.10" departSpeed="0.00" departDelay="0.24" arrival="75.00" arrivalLane="26_4way_B1to4way_C1_0" arrivalPos="185.60" arrivalSpeed="13.21" duration="63.00" routeLength="775.13" waitingTime="0.00" waitingCount="0" stopTime="0.00" timeLoss="7.45" rerouteNo="0" devices="tripinfo_28" vType="DEFAULT_VEHTYPE" speedFactor="1.03" vaporized=""/>
    <tripinfo id="30" depart="15.00" departLane="4_3way_A3to3way_A2_0" departPos="5.10" departSpeed="0.00" departDelay="2.40" arrival="76.00" arrivalLane="33_4way_C2to4way_D2_0" arrivalPos="185.60" arrivalSpeed="14.09" duration="61.00" routeLength="775.13" waitingTime="0.00" waitingCount="0" stopTime="0.00" timeLoss="6.88" rerouteNo="0" devices="tripinfo_30" vType="DEFAULT_VEHTYPE" speedFactor="1.05" vaporized=""/>
    <tripinfo id="61" depart="26.00" departLane="12_3way_D0to3way_C0_0" departPos="5.10" departSpeed="0.00" departDelay="0.38" arrival="76.00" arrivalLane="9_3way_B0to4way_B1_0" arrivalPos="185.60" arrivalSpeed="13.87" duration="50.00" routeLength="580.30" waitingTime="0.00" waitingCount="0" stopTime="0.00" timeLoss="6.82" rerouteNo="0" devices="tripinfo_61" vType="DEFAULT_VEHTYPE" speedFactor="1.01" vaporized=""/>
    <tripinfo id="140" depart="59.00" departLane="13_4way_C1to3way_C0_0" departPos="5.10" departSpeed="0.00" departDelay="0.20" arrival="76.00" arrivalLane="13_4way_C1to3way_C0_0" arrivalPos="185.60" arrivalSpeed="12.57" duration="17.00" routeLength="180.50" waitingTime="0.00" waitingCount="0" stopTime="0.00" timeLoss="2.89" rerouteNo="0" devices="tripinfo_140" vType="DEFAULT_VEHTYPE" speedFactor="0.93" vaporized=""/>
    <tripinfo id="144" depart="61.00" departLane="7_4way_B3to3way_A3_0" departPos="5.10" departSpeed="0.00" departDelay="0.52" arrival="77.00" arrivalLane="7_4way_B3to3way_A3_0" arrivalPos="185.60" arrivalSpeed="13.59" duration="16.00" routeLength="180.50" waitingTime="0.00" waitingCount="0" stopTime="0.00" timeLoss="3.66" rerouteNo="0" devices="tripinfo_144" vType="DEFAULT_VEHTYPE" speedFactor="1.07" vaporized=""/>
    <tripinfo id="31" depart="18.00" departLane="4_3way_A3to3way_A2_0" departPos="5.10" departSpeed="0.00" departDelay="4.98" arrival="78.00" arrivalLane="33_4way_C2to4way_D2_0" arrivalPos="185.60" arrivalSpeed="15.06" duration="60.00" routeLength="775.13" waitingTime="0.00" waitingCount="0" stopTime="0.00" timeLoss="8.26" rerouteNo="0" devices="tripinfo_31" vType="DEFAULT_VEHTYPE" speedFactor="1.11" vaporized=""/>
    <tripinfo id="19" depart="8.00" departLane="1_3way_A2to3way_A1_0" departPos="5.10" departSpeed="0.00" departDelay="0.02" arrival="79.00" arrivalLane="31_4way_C1to4way_D1_0" arrivalPos="185.60" arrivalSpeed="12.25" duration="71.00" routeLength="775.13" waitingTime="0.00" waitingCount="0" stopTime="0.00" timeLoss="7.54" rerouteNo="0" devices="tripinfo_19" vType="DEFAULT_VEHTYPE" speedFactor="0.89" vaporized=""/>
    <tripinfo id="40" depart="17.00" departLane="1_3way_A2to3way_A1_0" departPos="5.10" departSpeed="0.00" departDelay="0.20" arrival="80.00" arrivalLane="13_4way_C1to3way_C0_0" arrivalPos="185.60" arrivalSpeed="14.19" duration="63.00" routeLength="774.93" waitingTime="0.00" waitingCount="0" stopTime="0.00" timeLoss="9.60" rerouteNo="0" devices="tripinfo_40" vType="DEFAULT_VEHTYPE" speedFactor="1.08" vaporized=""/>
    <tripinfo id="148" depart="63.00" departLane="4_3way_A2to3way_A3_0" departPos="5.10" departSpeed="0.00" departDelay="0.84" arrival="80.00" arrivalLane="4_3way_A2to3way_A3_0" arrivalPos="185.60" arrivalSpeed="13.55" duration="17.00" routeLength="180.50" waitingTime="0.00" waitingCount="0" stopTime="0.00" timeLoss="4.14" rerouteNo="0" devices="tripinfo_148" vType="DEFAULT_VEHTYPE" speedFactor="1.07" vaporized=""/>
    <tripinfo id="153" depart="65.00" departLane="27_4way_B2to4way_B3_0" departPos="5.10" departSpeed="0.00" departDelay="0.74" arrival="84.00" arrivalLane="27_4way_B2to4way_B3_0" arrivalPos="185.60" arrivalSpeed="11.52" duration="19.00" routeLength="180.50" waitingTime="0.00" waitingCount="0" stopTime="0.00" timeLoss="4.12" rerouteNo="0" devices="tripinfo_153" vType="DEFAULT_VEHTYPE" speedFactor="0.90" vaporized=""/>
    <tripinfo id="85" depart="37.00" departLane="3_3way_A1to4way_B1_0" departPos="5.10" departSpeed="0.00" departDelay="1.30" arrival="87.00" arrivalLane="31_4way_C1to4way_D1_0" arrivalPos="185.60" arrivalSpeed="15.27" duration="50.00" routeLength="580.50" waitingTime="0.00" waitingCount="0" stopTime="0.00" timeLoss="12.02" rerouteNo="0" devices="tripinfo_85" vType="DEFAULT_VEHTYPE" speedFactor="1.12" vaporized=""/>
    <tripinfo id="168" depart="71.00" departLane="12_3way_C0to3way_D0_0" departPos="5.10" departSpeed="0.00" departDelay="0.44" arrival="87.00" arrivalLane="12_3way_C0to3way_D0_0" arrivalPos="185.60" arrivalSpeed="14.14" duration="16.00" routeLength="180.50" waitingTime="0.00" waitingCount="0" stopTime="0.00" timeLoss="3.84" rerouteNo="0" devices="tripinfo_168" vType="DEFAULT_VEHTYPE" speedFactor="1.10" vaporized=""/>
    <tripinfo id="123" depart="56.00" departLane="5_3way_A2to4way_B2_0" departPos="5.10" departSpeed="0.00" departDelay="4.34" arrival="89.00" arrivalLane="27_4way_B2to4way_B3_0" arrivalPos="185.60" arrivalSpeed="13.53" duration="33.00" routeLength="375.13" waitingTime="0.00" waitingCount="0" stopTime="0.00" timeLoss="6.26" rerouteNo="0" devices="tripinfo_123" vType="DEFAULT_VEHTYPE" speedFactor="1.06" vaporized=""/>
    <tripinfo id="36" depart="18.00" departLane="7_3way_A3to4way_B3_0" departPos="5.10" departSpeed="0.00" departDelay="2.88" arrival="93.00" arrivalLane="24_4way_D3to3way_E3_0" arrivalPos="185.60" arrivalSpeed="15.44" duration="75.00" routeLength="780.50" waitingTime="6.00" waitingCount="1" stopTime="0.00" timeLoss="25.86" rerouteNo="0" devices="tripinfo_36" vType="DEFAULT_VEHTYPE" speedFactor="1.16" vaporized=""/>
    <tripinfo id="131" depart="56.00" departLane="29_4way_B3to4way_C3_0" departPos="5.10" departSpeed="0.00" departDelay="0.98" arrival="95.00" arrivalLane="34_4way_C3to4way_D3_0" arrivalPos="185.60" arrivalSpeed="10.76" duration="39.00" routeLength="380.50" waitingTime="0.00" waitingCount="0" stopTime="0.00" timeLoss="4.80" rerouteNo="0" devices="tripinfo_131" vType="DEFAULT_VEHTYPE" speedFactor="0.82" vaporized=""/>
    <tripinfo id="132" depart="56.00" departLane="24_4way_D3to3way_E3_0" departPos="5.10" departSpeed="0.00" departDelay="0.56" arrival="95.00" arrivalLane="22_3way_E3to3way_E2_0" arrivalPos="185.60" arrivalSpeed="11.31" duration="39.00" routeLength="380.29" waitingTime="0.00" waitingCount="0" stopTime="0.00" timeLoss="5.84" rerouteNo="0" devices="tripinfo_132" vType="DEFAULT_VEHTYPE" speedFactor="0.86" vaporized=""/>
    <tripinfo id="112" depart="48.00" departLane="2_3way_A1to3way_B0_0" departPos="5.10" departSpeed="0.00" departDelay="0.96" arrival="97.00" arrivalLane="8_3way_B0to3way_C0_0" arrivalPos="185.60" arrivalSpeed="13.12" duration="49.00" routeLength="577.30" waitingTime="0.00" waitingCount="0" stopTime="0.00" timeLoss="4.77" rerouteNo="0" devices="tripinfo_112" vType="DEFAULT_VEHTYPE" speedFactor="0.95" vaporized=""/>
    <tripinfo id="81" depart="36.00" departLane="1_3way_A2to3way_A1_0" departPos="5.10" departSpeed="0.00" departDelay="1.98" arrival="99.00" arrivalLane="8_3way_B0to3way_C0_0" arrivalPos="185.60" arrivalSpeed="13.51" duration="63.00" routeLength="777.30" waitingTime="0.00" waitingCount="0" stopTime="0.00" timeLoss="8.92" rerouteNo="0" devices="tripinfo_81" vType="DEFAULT_VEHTYPE" speedFactor="1.05" vaporized=""/>
    <tripinfo id="164" depart="69.00" departLane="5_3way_A2to4way_B2_0" departPos="5.10" departSpeed="0.00" departDelay="0.12" arrival="99.00" arrivalLane="28_4way_B2to4way_C2_0" arrivalPos="185.60" arrivalSpeed="14.48" duration="30.00" routeLength="380.50" waitingTime="0.00" waitingCount="0" stopTime="0.00" timeLoss="4.41" rerouteNo="0" devices="tripinfo_164" vType="DEFAULT_VEHTYPE" speedFactor="1.11" vaporized=""/>
    <tripinfo id="195" depart="82.00" departLane="3_3way_A1to4way_B1_0" departPos="5.10" departSpeed="0.00" departDelay="0.10" arrival="100.00" arrivalLane="3_3way_A1to4way_B1_0" arrivalPos="185.60" arrivalSpeed="11.46" duration="18.00" routeLength="180.50" waitingTime="0.00" waitingCount="0" stopTime="0.00" timeLoss="3.35" rerouteNo="0" devices="tripinfo_195" vType="DEFAULT_VEHTYPE" speedFactor="0.90" vaporized=""/>
    <tripinfo id="198" depart="86.00" departLane="14_3way_D4to3way_C4_0" departPos="5.10" departSpeed="0.00" departDelay="2.84" arrival="105.00" arrivalLane="14_3way_D4to3way_C4_0" arrivalPos="185.60" arrivalSpeed="10.91" duration="19.00" routeLength="180.50" waitingTime="0.00" waitingCount="0" stopTime="0.00" timeLoss="3.83" rerouteNo="0" devices="tripinfo_198" vType="DEFAULT_VEHTYPE" speedFactor="0.87" vaporized=""/>
    <tripinfo id="209" depart="90.00" departLane="21_3way_E1to4way_D1_0" departPos="5.10" departSpeed="0.00" departDelay="2.22" arrival="107.00" arrivalLane="21_3way_E1to4way_D1_0" arrivalPos="185.60" arrivalSpeed="12.95" duration="17.00" routeLength="180.50" waitingTime="0.00" waitingCount="0" stopTime="0.00" timeLoss="3.24" rerouteNo="0" devices="tripinfo_209" vType="DEFAULT_VEHTYPE" speedFactor="0.95" vaporized=""/>
    <tripinfo id="214" depart="90.00" departLane="34_4way_C3to4way_D3_0" departPos="5.10" departSpeed="0.00" departDelay="0.12" arrival="107.00" arrivalLane="34_4way_C3to4way_D3_0" arrivalPos="185.60" arrivalSpeed="12.85" duration="17.00" routeLength="180.50" waitingTime="0.00" waitingCount="0" stopTime="0.00" timeLoss="3.81" rerouteNo="0" devices="tripinfo_214" vType="DEFAULT_VEHTYPE" speedFactor="1.00" vaporized=""/>
    <tripinfo id="44" depart="19.00" departLane="10_3way_B4to3way_C4_0" departPos="5.10" departSpeed="0.00" departDelay="0.52" arrival="108.00" arrivalLane="18_3way_D4to3way_E3_0" arrivalPos="388.80" arrivalSpeed="9.92" duration="89.00" routeLength="783.70" waitingTime="5.00" waitingCount="1" stopTime="0.00" timeLoss="16.86" rerouteNo="0" devices="tripinfo_44" vType="DEFAULT_VEHTYPE" speedFactor="0.78" vaporized=""/>
    <tripinfo id="167" depart="71.00" departLane="3_3way_A1to4way_B1_0" departPos="5.10" departSpeed="0.00" departDelay="0.86" arrival="108.00" arrivalLane="26_4way_B1to4way_C1_0" arrivalPos="185.60" arrivalSpeed="10.70" duration="37.00" routeLength="380.50" waitingTime="0.00" waitingCount="0" stopTime="0.00" timeLoss="4.13" rerouteNo="0" devices="tripinfo_167" vType="DEFAULT_VEHTYPE" speedFactor="0.85" vaporized=""/>
    <tripinfo id="173" depart="73.00" departLane="12_3way_D0to3way_C0_0" departPos="5.10" departSpeed="0.00" departDelay="0.34" arrival="108.00" arrivalLane="8_3way_C0to3way_B0_0" arrivalPos="185.60" arrivalSpeed="12.19" duration="35.00" routeLength="380.50" waitingTime="0.00" waitingCount="0" stopTime="0.00" timeLoss="4.11" rerouteNo="0" devices="tripinfo_173" vType="DEFAULT_VEHTYPE" speedFactor="0.90" vaporized=""/>
    <tripinfo id="215" depart="91.00" departLane="24_4way_D3to3way_E3_0" departPos="5.10" departSpeed="0.00" departDelay="0.70" arrival="108.00" arrivalLane="24_4way_D3to3way_E3_0" arrivalPos="185.60" arrivalSpeed="12.74" duration="17.00" routeLength="180.50" waitingTime="0.00" waitingCount="0" stopTime="0.00" timeLoss="3.63" rerouteNo="0" devices="tripinfo_215" vType="DEFAULT_VEHTYPE" speedFactor="1.00" vaporized=""/>
    <tripinfo id="179" depart="76.00" departLane="10_3way_B4to3way_C4_0" departPos="5.10" departSpeed="0.00" departDelay="0.82" arrival="109.00" arrivalLane="14_3way_C4to3way_D4_0" arrivalPos="185.60" arrivalSpeed="12.98" duration="33.00" routeLength="380.50" waitingTime="0.00" waitingCount="0" stopTime="0.00" timeLoss="4.11" rerouteNo="0" devices="tripinfo_179" vType="DEFAULT_VEHTYPE" speedFactor="0.97" vaporized=""/>
    <tripinfo id="222" depart="94.00" departLane="10_3way_B4to3way_C4_0" departPos="5.10" departSpeed="0.00" departDelay="0.76" arrival="110.00" arrivalLane="10_3way_B4to3way_C4_0" arrivalPos="185.60" arrivalSpeed="14.58" duration="16.00" routeLength="180.50" waitingTime="0.00" waitingCount="0" stopTime="0.00" timeLoss="3.51" rerouteNo="0" devices="tripinfo_222" vType="DEFAULT_VEHTYPE" speedFactor="1.10" vaporized=""/>
    <tripinfo id="199" depart="84.00" departLane="1_3way_A1to3way_A2_0" departPos="5.10" departSpeed="0.00" departDelay="0.42" arrival="112.00" arrivalLane="4_3way_A2to3way_A3_0" arrivalPos="185.60" arrivalSpeed="16.37" duration="28.00" routeLength="380.50" waitingTime="0.00" waitingCount="0" stopTime="0.00" timeLoss="4.67" rerouteNo="0" devices="tripinfo_199" vType="DEFAULT_VEHTYPE" speedFactor="1.20" vaporized=""/>
    <tripinfo id="118" depart="51.00" departLane="20_3way_E1to3way_E2_0" departPos="5.10" departSpeed="0.00" departDelay="1.44" arrival="113.00" arrivalLane="28_4way_C2to4way_B2_0" arrivalPos="185.60" arrivalSpeed="13.49" duration="62.00" routeLength="775.13" waitingTime="0.00" waitingCount="0" stopTime="0.00" timeLoss="8.29" rerouteNo="0" devices="tripinfo_118" vType="DEFAULT_VEHTYPE" speedFactor="1.05" vaporized=""/>
    <tripinfo id="126" depart="53.00" departLane="6_3way_A3to3way_B4_0" departPos="5.10" departSpeed="0.00" departDelay="0.08" arrival="115.00" arrivalLane="14_3way_C4to3way_D4_0" arrivalPos="185.60" arrivalSpeed="13.05" duration="62.00" routeLength="783.70" waitingTime="0.00" waitingCount="0" stopTime="0.00" timeLoss="5.64" rerouteNo="0" devices="tripinfo_126" vType="DEFAULT_VEHTYPE" speedFactor="1.01" vaporized=""/>
    <tripinfo id="186" depart="79.00" departLane="21_3way_E1to4way_D1_0" departPos="5.10" departSpeed="0.00" departDelay="0.88" arrival="115.00" arrivalLane="31_4way_D1to4way_C1_0" arrivalPos="185.60" arrivalSpeed="11.45" duration="36.00" routeLength="380.50" waitingTime="0.00" waitingCount="0" stopTime="0.00" timeLoss="4.38" rerouteNo="0" devices="tripinfo_186" vType="DEFAULT_VEHTYPE" speedFactor="0.87" vaporized=""/>
    <tripinfo id="130" depart="55.00" departLane="8_3way_C0to3way_B0_0" departPos="5.10" departSpeed="0.00" departDelay="0.40" arrival="119.00" arrivalLane="1_3way_A1to3way_A2_0" arrivalPos="185.60" arrivalSpeed="12.68" duration="64.00" routeLength="783.70" waitingTime="0.00" waitingCount="0" stopTime="0.00" timeLoss="5.43" rerouteNo="0" devices="tripinfo_130" vType="DEFAULT_VEHTYPE" speedFactor="0.98" vaporized=""/>
    <tripinfo id="247" depart="107.00" departLane="31_4way_D1to4way_C1_0" departPos="5.10" departSpeed="0.00" departDelay="3.26" arrival="125.00" arrivalLane="31_4way_D1to4way_C1_0" arrivalPos="185.60" arrivalSpeed="4.03" duration="18.00" routeLength="180.50" waitingTime="0.00" waitingCount="0" stopTime="0.00" timeLoss="5.78" rerouteNo="0" devices="tripinfo_247" vType="DEFAULT_VEHTYPE" speedFactor="1.07" vaporized=""/>
    <tripinfo id="265" depart="112.00" departLane="12_3way_C0to3way_D0_0" departPos="5.10" departSpeed="0.00" departDelay="0.70" arrival="129.00" arrivalLane="12_3way_C0to3way_D0_0" arrivalPos="185.60" arrivalSpeed="12.53" duration="17.00" routeLength="180.50" waitingTime="0.00" waitingCount="0" stopTime="0.00" timeLoss="3.48" rerouteNo="0" devices="tripinfo_265" vType="DEFAULT_VEHTYPE" speedFactor="0.99" vaporized=""/>
    <tripinfo id="62" depart="29.00" departLane="24_3way_E3to4way_D3_0" departPos="5.10" departSpeed="0.00" departDelay="2.96" arrival="130.00" arrivalLane="7_4way_B3to3way_A3_0" arrivalPos="185.60" arrivalSpeed="5.56" duration="101.00" routeLength="780.50" waitingTime="33.00" waitingCount="1" stopTime="0.00" timeLoss="47.21" rerouteNo="0" devices="tripinfo_62" vType="DEFAULT_VEHTYPE" speedFactor="1.05" vaporized=""/>
    <tripinfo id="207" depart="87.00" departLane="21_3way_E1to4way_D1_0" departPos="5.10" departSpeed="0.00" departDelay="0.06" arrival="132.00" arrivalLane="13_4way_C1to3way_C0_0" arrivalPos="185.60" arrivalSpeed="16.31" duration="45.00" routeLength="575.13" waitingTime="0.00" waitingCount="0" stopTime="0.00" timeLoss="10.81" rerouteNo="0" devices="tripinfo_207" vType="DEFAULT_VEHTYPE" speedFactor="1.24" vaporized=""/>
    <tripinfo id="152" depart="64.00" departLane="8_3way_B0to3way_C0_0" departPos="5.10" departSpeed="0.00" departDelay="0.16" arrival="133.00" arrivalLane="16_3way_D0to3way_E1_0" arrivalPos="382.40" arrivalSpeed="11.48" duration="69.00" routeLength="777.30" waitingTime="0.00" waitingCount="0" stopTime="0.00" timeLoss="5.61" rerouteNo="0" devices="tripinfo_152" vType="DEFAULT_VEHTYPE" speedFactor="0.89" vaporized=""/>
    <tripinfo id="192" depart="81.00" departLane="29_4way_C3to4way_B3_0" departPos="5.10" departSpeed="0.00" departDelay="0.36" arrival="133.00" arrivalLane="7_4way_B3to3way_A3_0" arrivalPos="185.60" arrivalSpeed="8.62" duration="52.00" routeLength="380.50" waitingTime="15.00" waitingCount="1" stopTime="0.00" timeLoss="27.06" rerouteNo="0" devices="tripinfo_192" vType="DEFAULT_VEHTYPE" speedFactor="1.12" vaporized=""/>