<?xml version="1.0" encoding="UTF-8"?>

<!-- generated on 2023-07-29 18:16:09 by Eclipse SUMO sumo Version 1.12.0
<configuration xmlns:xsi="http://www.w3.org/2001/XMLSchema-instance" xsi:noNamespaceSchemaLocation="http://sumo.dlr.de/xsd/sumoConfiguration.xsd">

    <input>
        <net-file value="../../data_generation/sq.net.xml"/>
        <route-files value="../../data_generation/sq.rou.xml"/>
    </input>

    <output>
        <tripinfo-output value="tripinfo.xml"/>
        <statistic-output value="statistic.xml"/>
    </output>

    <time>
        <begin value="0"/>
        <end value="3600"/>
    </time>

    <processing>
        <time-to-teleport value="-1"/>
    </processing>

    <traci_server>
        <remote-port value="58787"/>
    </traci_server>

    <random_number>
        <seed value="1395"/>
    </random_number>

    <gui_only>
        <gui-settings-file value="../../data_generation/view_HY_0402.xml"/>
    </gui_only>

</configuration>
-->

<tripinfos xmlns:xsi="http://www.w3.org/2001/XMLSchema-instance" xsi:noNamespaceSchemaLocation="http://sumo.dlr.de/xsd/tripinfo_file.xsd">
    <tripinfo id="18" depart="6.00" departLane="102_4way_44to4way_34_0" departPos="5.10" departSpeed="0.00" departDelay="3.43" arrival="15.00" arrivalLane="102_4way_44to4way_34_0" arrivalPos="85.60" arrivalSpeed="12.04" duration="9.00" routeLength="80.50" waitingTime="0.00" waitingCount="0" stopTime="0.00" timeLoss="2.93" rerouteNo="0" devices="tripinfo_18" vType="DEFAULT_VEHTYPE" speedFactor="0.96" vaporized=""/>
    <tripinfo id="0" depart="0.00" departLane="131_4way_55to4way_54_0" departPos="5.10" departSpeed="0.00" departDelay="0.00" arrival="17.00" arrivalLane="129_4way_54to4way_53_0" arrivalPos="85.60" arrivalSpeed="13.24" duration="17.00" routeLength="180.50" waitingTime="0.00" waitingCount="0" stopTime="0.00" timeLoss="3.96" rerouteNo="0" devices="tripinfo_0" vType="DEFAULT_VEHTYPE" speedFactor="1.00" vaporized=""/>
    <tripinfo id="23" depart="4.00" departLane="18_4way_31to3way_30_0" departPos="5.10" departSpeed="0.00" departDelay="0.72" arrival="24.00" arrivalLane="11_3way_30to3way_20_0" arrivalPos="85.60" arrivalSpeed="10.91" duration="20.00" routeLength="180.29" waitingTime="0.00" waitingCount="0" stopTime="0.00" timeLoss="4.16" rerouteNo="0" devices="tripinfo_23" vType="DEFAULT_VEHTYPE" speedFactor="0.87" vaporized=""/>
    <tripinfo id="148" depart="22.00" departLane="139_4way_58to4way_68_0" departPos="5.10" departSpeed="0.00" departDelay="0.87" arrival="31.00" arrivalLane="139_4way_58to4way_68_0" arrivalPos="85.60" arrivalSpeed="14.55" duration="9.00" routeLength="80.50" waitingTime="0.00" waitingCount="0" stopTime="0.00" timeLoss="3.38" rerouteNo="0" devices="tripinfo_148" vType="DEFAULT_VEHTYPE" speedFactor="1.07" vaporized=""/>
    <tripinfo id="90" depart="13.00" departLane="52_3way_92to3way_93_0" departPos="5.10" departSpeed="0.00" departDelay="0.15" arrival="33.00" arrivalLane="55_3way_93to4way_83_0" arrivalPos="85.60" arrivalSpeed="12.98" duration="20.00" routeLength="175.13" waitingTime="0.00" waitingCount="0" stopTime="0.00" timeLoss="4.97" rerouteNo="0" devices="tripinfo_90" vType="DEFAULT_VEHTYPE" speedFactor="0.95" vaporized=""/>
    <tripinfo id="162" depart="24.00" departLane="89_4way_35to4way_25_0" departPos="5.10" departSpeed="0.00" departDelay="0.87" arrival="34.00" arrivalLane="89_4way_35to4way_25_0" arrivalPos="85.60" arrivalSpeed="12.25" duration="10.00" routeLength="80.50" waitingTime="0.00" waitingCount="0" stopTime="0.00" timeLoss="3.09" rerouteNo="0" devices="tripinfo_162" vType="DEFAULT_VEHTYPE" speedFactor="0.96" vaporized=""/>
    <tripinfo id="145" depart="21.00" departLane="61_3way_96to4way_86_0" departPos="5.10" departSpeed="0.00" departDelay="0.29" arrival="38.00" arrivalLane="166_4way_86to4way_76_0" arrivalPos="85.60" arrivalSpeed="12.78" duration="17.00" routeLength="180.50" waitingTime="0.00" waitingCount="0" stopTime="0.00" timeLoss="3.40" rerouteNo="0" devices="tripinfo_145" vType="DEFAULT_VEHTYPE" speedFactor="0.96" vaporized=""/>
    <tripinfo id="19" depart="3.00" departLane="89_4way_25to4way_35_0" departPos="5.10" departSpeed="0.00" departDelay="0.29" arrival="40.00" arrivalLane="107_4way_37to4way_38_0" arrivalPos="85.60" arrivalSpeed="11.67" duration="37.00" routeLength="375.13" waitingTime="0.00" waitingCount="0" stopTime="0.00" timeLoss="5.85" rerouteNo="0" devices="tripinfo_19" vType="DEFAULT_VEHTYPE" speedFactor="0.89" vaporized=""/>
    <tripinfo id="134" depart="20.00" departLane="138_4way_57to4way_67_0" departPos="5.10" departSpeed="0.00" departDelay="0.86" arrival="40.00" arrivalLane="152_4way_67to4way_68_0" arrivalPos="85.60" arrivalSpeed="12.78" duration="20.00" routeLength="175.13" waitingTime="0.00" waitingCount="0" stopTime="0.00" timeLoss="5.59" rerouteNo="0" devices="tripinfo_134" vType="DEFAULT_VEHTYPE" speedFactor="1.00" vaporized=""/>
    <tripinfo id="151" depart="22.00" departLane="53_3way_92to4way_82_0" departPos="5.10" departSpeed="0.00" departDelay="0.44" arrival="41.00" arrivalLane="170_4way_82to4way_81_0" arrivalPos="85.60" arrivalSpeed="13.47" duration="19.00" routeLength="175.13" waitingTime="0.00" waitingCount="0" stopTime="0.00" timeLoss="6.14" rerouteNo="0" devices="tripinfo_151" vType="DEFAULT_VEHTYPE" speedFactor="1.02" vaporized=""/>
    <tripinfo id="119" depart="17.00" departLane="19_3way_49to3way_39_0" departPos="5.10" departSpeed="0.00" departDelay="0.01" arrival="46.00" arrivalLane="107_4way_38to4way_37_0" arrivalPos="85.60" arrivalSpeed="11.70" duration="29.00" routeLength="275.13" waitingTime="0.00" waitingCount="0" stopTime="0.00" timeLoss="5.22" rerouteNo="0" devices="tripinfo_119" vType="DEFAULT_VEHTYPE" speedFactor="0.90" vaporized=""/>
    <tripinfo id="186" depart="27.00" departLane="137_4way_58to4way_57_0" departPos="5.10" departSpeed="0.00" departDelay="0.44" arrival="46.00" arrivalLane="135_4way_57to4way_56_0" arrivalPos="85.60" arrivalSpeed="11.12" duration="19.00" routeLength="180.50" waitingTime="0.00" waitingCount="0" stopTime="0.00" timeLoss="3.43" rerouteNo="0" devices="tripinfo_186" vType="DEFAULT_VEHTYPE" speedFactor="0.87" vaporized=""/>
    <tripinfo id="190" depart="28.00" departLane="168_4way_87to4way_77_0" departPos="5.10" departSpeed="0.00" departDelay="0.87" arrival="46.00" arrivalLane="165_4way_77to4way_76_0" arrivalPos="85.60" arrivalSpeed="14.30" duration="18.00" routeLength="175.13" waitingTime="0.00" waitingCount="0" stopTime="0.00" timeLoss="5.46" rerouteNo="0" devices="tripinfo_190" vType="DEFAULT_VEHTYPE" speedFactor="1.08" vaporized=""/>
    <tripinfo id="268" depart="41.00" departLane="72_4way_14to4way_24_0" departPos="5.10" departSpeed="0.00" departDelay="2.73" arrival="50.00" arrivalLane="72_4way_14to4way_24_0" arrivalPos="85.60" arrivalSpeed="16.77" duration="9.00" routeLength="80.50" waitingTime="0.00" waitingCount="0" stopTime="0.00" timeLoss="4.04" rerouteNo="0" devices="tripinfo_268" vType="DEFAULT_VEHTYPE" speedFactor="1.22" vaporized=""/>
    <tripinfo id="309" depart="45.00" departLane="152_4way_67to4way_68_0" departPos="5.10" departSpeed="0.00" departDelay="0.87" arrival="54.00" arrivalLane="152_4way_67to4way_68_0" arrivalPos="85.60" arrivalSpeed="14.98" duration="9.00" routeLength="80.50" waitingTime="0.00" waitingCount="0" stopTime="0.00" timeLoss="3.36" rerouteNo="0" devices="tripinfo_309" vType="DEFAULT_VEHTYPE" speedFactor="1.12" vaporized=""/>
    <tripinfo id="201" depart="29.00" departLane="22_3way_4to4way_14_0" departPos="5.10" departSpeed="0.00" departDelay="0.30" arrival="55.00" arrivalLane="87_4way_24to4way_34_0" arrivalPos="85.60" arrivalSpeed="12.09" duration="26.00" routeLength="280.50" waitingTime="0.00" waitingCount="0" stopTime="0.00" timeLoss="4.12" rerouteNo="0" devices="tripinfo_201" vType="DEFAULT_VEHTYPE" speedFactor="0.93" vaporized=""/>
    <tripinfo id="315" depart="45.00" departLane="19_3way_39to3way_49_0" departPos="5.10" departSpeed="0.00" departDelay="0.02" arrival="55.00" arrivalLane="19_3way_39to3way_49_0" arrivalPos="85.60" arrivalSpeed="12.48" duration="10.00" routeLength="80.50" waitingTime="0.00" waitingCount="0" stopTime="0.00" timeLoss="3.30" rerouteNo="0" devices="tripinfo_315" vType="DEFAULT_VEHTYPE" speedFactor="0.93" vaporized=""/>
    <tripinfo id="254" depart="37.00" departLane="119_4way_55to4way_45_0" departPos="5.10" departSpeed="0.00" departDelay="0.73" arrival="58.00" arrivalLane="116_4way_45to4way_44_0" arrivalPos="85.60" arrivalSpeed="12.47" duration="21.00" routeLength="175.13" waitingTime="0.00" waitingCount="0" stopTime="0.00" timeLoss="5.75" rerouteNo="0" devices="tripinfo_254" vType="DEFAULT_VEHTYPE" speedFactor="0.90" vaporized=""/>
    <tripinfo id="273" depart="39.00" departLane="82_4way_23to4way_22_0" departPos="5.10" departSpeed="0.00" departDelay="0.02" arrival="58.00" arrivalLane="83_4way_22to4way_32_0" arrivalPos="85.60" arrivalSpeed="14.38" duration="19.00" routeLength="175.13" waitingTime="0.00" waitingCount="0" stopTime="0.00" timeLoss="5.52" rerouteNo="0" devices="tripinfo_273" vType="DEFAULT_VEHTYPE" speedFactor="1.04" vaporized=""/>
    <tripinfo id="218" depart="32.00" departLane="28_3way_5to4way_15_0" departPos="5.10" departSpeed="0.00" departDelay="0.87" arrival="67.00" arrivalLane="77_4way_17to4way_18_0" arrivalPos="85.60" arrivalSpeed="12.67" duration="35.00" routeLength="375.13" waitingTime="0.00" waitingCount="0" stopTime="0.00" timeLoss="5.58" rerouteNo="0" devices="tripinfo_218" vType="DEFAULT_VEHTYPE" speedFactor="0.96" vaporized=""/>
    <tripinfo id="275" depart="41.00" departLane="51_4way_81to3way_91_0" departPos="5.10" departSpeed="0.00" departDelay="1.73" arrival="67.00" arrivalLane="52_3way_92to3way_93_0" arrivalPos="85.60" arrivalSpeed="13.95" duration="26.00" routeLength="275.13" waitingTime="0.00" waitingCount="0" stopTime="0.00" timeLoss="5.42" rerouteNo="0" devices="tripinfo_275" vType="DEFAULT_VEHTYPE" speedFactor="1.02" vaporized=""/>
    <tripinfo id="339" depart="49.00" departLane="131_4way_54to4way_55_0" departPos="5.10" departSpeed="0.00" departDelay="0.59" arrival="68.00" arrivalLane="119_4way_55to4way_45_0" arrivalPos="85.60" arrivalSpeed="13.85" duration="19.00" routeLength="175.13" waitingTime="0.00" waitingCount="0" stopTime="0.00" timeLoss="5.40" rerouteNo="0" devices="tripinfo_339" vType="DEFAULT_VEHTYPE" speedFactor="1.03" vaporized=""/>
    <tripinfo id="412" depart="59.00" departLane="146_4way_64to4way_65_0" departPos="5.10" departSpeed="0.00" departDelay="0.17" arrival="69.00" arrivalLane="146_4way_64to4way_65_0" arrivalPos="85.60" arrivalSpeed="14.02" duration="10.00" routeLength="80.50" waitingTime="0.00" waitingCount="0" stopTime="0.00" timeLoss="3.99" rerouteNo="0" devices="tripinfo_412" vType="DEFAULT_VEHTYPE" speedFactor="1.08" vaporized=""/>
    <tripinfo id="155" depart="23.00" departLane="7_3way_19to3way_8_0" departPos="5.10" departSpeed="0.00" departDelay="0.87" arrival="70.00" arrivalLane="7_3way_19to3way_8_0" arrivalPos="182.40" arrivalSpeed="5.89" duration="47.00" routeLength="177.30" waitingTime="25.00" waitingCount="1" stopTime="0.00" timeLoss="33.17" rerouteNo="0" devices="tripinfo_155" vType="DEFAULT_VEHTYPE" speedFactor="0.94" vaporized=""/>
    <tripinfo id="163" depart="24.00" departLane="30_4way_51to3way_50_0" departPos="5.10" departSpeed="0.00" departDelay="0.72" arrival="70.00" arrivalLane="30_4way_51to3way_50_0" arrivalPos="85.60" arrivalSpeed="5.28" duration="46.00" routeLength="80.50" waitingTime="31.00" waitingCount="1" stopTime="0.00" timeLoss="39.75" rerouteNo="0" devices="tripinfo_163" vType="DEFAULT_VEHTYPE" speedFactor="0.94" vaporized=""/>
    <tripinfo id="221" depart="32.00" departLane="167_4way_77to4way_78_0" departPos="5.10" departSpeed="0.00" departDelay="0.44" arrival="70.00" arrivalLane="154_4way_78to4way_68_0" arrivalPos="85.60" arrivalSpeed="5.24" duration="38.00" routeLength="175.13" waitingTime="13.00" waitingCount="1" stopTime="0.00" timeLoss="23.27" rerouteNo="0" devices="tripinfo_221" vType="DEFAULT_VEHTYPE" speedFactor="0.90" vaporized=""/>
    <tripinfo id="271" depart="39.00" departLane="65_4way_11to4way_12_0" departPos="5.10" departSpeed="0.00" departDelay="0.30" arrival="70.00" arrivalLane="67_4way_12to4way_13_0" arrivalPos="85.60" arrivalSpeed="5.46" duration="31.00" routeLength="180.50" waitingTime="8.00" waitingCount="1" stopTime="0.00" timeLoss="16.40" rerouteNo="0" devices="tripinfo_271" vType="DEFAULT_VEHTYPE" speedFactor="0.90" vaporized=""/>
    <tripinfo id="330" depart="48.00" departLane="146_4way_64to4way_65_0" departPos="5.10" departSpeed="0.00" departDelay="0.88" arrival="70.00" arrivalLane="134_4way_65to4way_55_0" arrivalPos="85.60" arrivalSpeed="5.30" duration="22.00" routeLength="175.13" waitingTime="0.00" waitingCount="0" stopTime="0.00" timeLoss="9.80" rerouteNo="0" devices="tripinfo_330" vType="DEFAULT_VEHTYPE" speedFactor="1.08" vaporized=""/>
    <tripinfo id="333" depart="48.00" departLane="161_4way_74to4way_75_0" departPos="5.10" departSpeed="0.00" departDelay="0.45" arrival="70.00" arrivalLane="163_4way_75to4way_76_0" arrivalPos="85.60" arrivalSpeed="5.45" duration="22.00" routeLength="180.50" waitingTime="0.00" waitingCount="0" stopTime="0.00" timeLoss="10.48" rerouteNo="0" devices="tripinfo_333" vType="DEFAULT_VEHTYPE" speedFactor="1.14" vaporized=""/>
    <tripinfo id="115" depart="17.00" departLane="16_3way_3to4way_13_0" departPos="5.10" departSpeed="0.00" departDelay="0.58" arrival="71.00" arrivalLane="70_4way_13to4way_23_0" arrivalPos="85.60" arrivalSpeed="5.41" duration="54.00" routeLength="180.50" waitingTime="31.00" waitingCount="1" stopTime="0.00" timeLoss="39.80" rerouteNo="0" devices="tripinfo_115" vType="DEFAULT_VEHTYPE" speedFactor="0.92" vaporized=""/>
    <tripinfo id="322" depart="46.00" departLane="171_4way_83to4way_82_0" departPos="5.10" departSpeed="0.00" departDelay="0.02" arrival="72.00" arrivalLane="171_4way_83to4way_82_0" arrivalPos="85.60" arrivalSpeed="7.36" duration="26.00" routeLength="80.50" waitingTime="11.00" waitingCount="1" stopTime="0.00" timeLoss="20.60" rerouteNo="0" devices="tripinfo_322" vType="DEFAULT_VEHTYPE" speedFactor="1.08" vaporized=""/>
    <tripinfo id="347" depart="50.00" departLane="7_3way_19to3way_8_0" departPos="5.10" departSpeed="0.00" departDelay="0.45" arrival="72.00" arrivalLane="7_3way_19to3way_8_0" arrivalPos="182.40" arrivalSpeed="7.33" duration="22.00" routeLength="177.30" waitingTime="0.00" waitingCount="0" stopTime="0.00" timeLoss="9.35" rerouteNo="0" devices="tripinfo_347" vType="DEFAULT_VEHTYPE" speedFactor="1.01" vaporized=""/>
    <tripinfo id="41" depart="6.00" departLane="42_3way_70to4way_71_0" departPos="5.10" departSpeed="0.00" departDelay="0.14" arrival="73.00" arrivalLane="157_4way_72to4way_73_0" arrivalPos="85.60" arrivalSpeed="8.86" duration="67.00" routeLength="280.50" waitingTime="36.00" waitingCount="1" stopTime="0.00" timeLoss="48.48" rerouteNo="0" devices="tripinfo_41" vType="DEFAULT_VEHTYPE" speedFactor="1.12" vaporized=""/>
    <tripinfo id="174" depart="25.00" departLane="67_4way_13to4way_12_0" departPos="5.10" departSpeed="0.00" departDelay="0.15" arrival="73.00" arrivalLane="68_4way_12to4way_22_0" arrivalPos="85.60" arrivalSpeed="7.28" duration="48.00" routeLength="175.13" waitingTime="23.00" waitingCount="1" stopTime="0.00" timeLoss="33.67" rerouteNo="0" devices="tripinfo_174" vType="DEFAULT_VEHTYPE" speedFactor="0.94" vaporized=""/>
    <tripinfo id="290" depart="42.00" departLane="27_3way_6to3way_5_0" departPos="5.10" departSpeed="0.00" departDelay="0.59" arrival="75.00" arrivalLane="21_3way_5to3way_4_0" arrivalPos="85.60" arrivalSpeed="9.77" duration="33.00" routeLength="180.50" waitingTime="9.00" waitingCount="1" stopTime="0.00" timeLoss="21.24" rerouteNo="0" devices="tripinfo_290" vType="DEFAULT_VEHTYPE" speedFactor="1.14" vaporized=""/>
    <tripinfo id="426" depart="65.00" departLane="79_4way_18to4way_28_0" departPos="5.10" departSpeed="0.00" departDelay="4.17" arrival="75.00" arrivalLane="79_4way_18to4way_28_0" arrivalPos="85.60" arrivalSpeed="13.87" duration="10.00" routeLength="80.50" waitingTime="0.00" waitingCount="0" stopTime="0.00" timeLoss="4.31" rerouteNo="0" devices="tripinfo_426" vType="DEFAULT_VEHTYPE" speedFactor="1.14" vaporized=""/>
    <tripinfo id="72" depart="11.00" departLane="79_4way_18to4way_28_0" departPos="5.10" departSpeed="0.00" departDelay="0.72" arrival="76.00" arrivalLane="14_4way_28to3way_29_0" arrivalPos="85.60" arrivalSpeed="15.45" duration="65.00" routeLength="175.13" waitingTime="44.00" waitingCount="1" stopTime="0.00" timeLoss="53.48" rerouteNo="0" devices="tripinfo_72" vType="DEFAULT_VEHTYPE" speedFactor="1.15" vaporized=""/>
    <tripinfo id="178" depart="26.00" departLane="168_4way_77to4way_87_0" departPos="5.10" departSpeed="0.00" departDelay="0.58" arrival="76.00" arrivalLane="63_4way_87to3way_97_0" arrivalPos="85.60" arrivalSpeed="14.79" duration="50.00" routeLength="180.50" waitingTime="28.00" waitingCount="1" stopTime="0.00" timeLoss="37.55" rerouteNo="0" devices="tripinfo_178" vType="DEFAULT_VEHTYPE" speedFactor="1.07" vaporized=""/>
    <tripinfo id="10" depart="2.00" departLane="136_4way_56to4way_66_0" departPos="5.10" departSpeed="0.00" departDelay="0.57" arrival="77.00" arrivalLane="152_4way_67to4way_68_0" arrivalPos="85.60" arrivalSpeed="14.08" duration="75.00" routeLength="275.13" waitingTime="44.00" waitingCount="1" stopTime="0.00" timeLoss="54.99" rerouteNo="0" devices="tripinfo_10" vType="DEFAULT_VEHTYPE" speedFactor="1.04" vaporized=""/>
    <tripinfo id="17" depart="3.00" departLane="102_4way_44to4way_34_0" departPos="5.10" departSpeed="0.00" departDelay="0.57" arrival="77.00" arrivalLane="9_3way_3to3way_2_0" arrivalPos="85.60" arrivalSpeed="14.38" duration="74.00" routeLength="575.13" waitingTime="19.00" waitingCount="1" stopTime="0.00" timeLoss="32.20" rerouteNo="0" devices="tripinfo_17" vType="DEFAULT_VEHTYPE" speedFactor="1.04" vaporized=""/>
    <tripinfo id="45" depart="7.00" departLane="133_4way_55to4way_56_0" departPos="5.10" departSpeed="0.00" departDelay="0.57" arrival="77.00" arrivalLane="32_4way_58to3way_59_0" arrivalPos="85.60" arrivalSpeed="13.78" duration="70.00" routeLength="380.50" waitingTime="32.00" waitingCount="1" stopTime="0.00" timeLoss="42.28" rerouteNo="0" devices="tripinfo_45" vType="DEFAULT_VEHTYPE" speedFactor="1.00" vaporized=""/>
    <tripinfo id="50" depart="8.00" departLane="137_4way_58to4way_57_0" departPos="5.10" departSpeed="0.00" departDelay="0.86" arrival="77.00" arrivalLane="149_4way_65to4way_75_0" arrivalPos="85.60" arrivalSpeed="13.09" duration="69.00" routeLength="475.13" waitingTime="23.00" waitingCount="1" stopTime="0.00" timeLoss="34.39" rerouteNo="0" devices="tripinfo_50" vType="DEFAULT_VEHTYPE" speedFactor="1.01" vaporized=""/>
    <tripinfo id="82" depart="12.00" departLane="81_4way_31to4way_21_0" departPos="5.10" departSpeed="0.00" departDelay="0.29" arrival="77.00" arrivalLane="2_3way_1to3way_2_0" arrivalPos="85.60" arrivalSpeed="13.67" duration="65.00" routeLength="380.29" waitingTime="27.00" waitingCount="1" stopTime="0.00" timeLoss="36.31" rerouteNo="0" devices="tripinfo_82" vType="DEFAULT_VEHTYPE" speedFactor="0.99" vaporized=""/>
    <tripinfo id="88" depart="13.00" departLane="22_3way_4to4way_14_0" departPos="5.10" departSpeed="0.00" departDelay="0.43" arrival="77.00" arrivalLane="116_4way_44to4way_45_0" arrivalPos="85.60" arrivalSpeed="7.68" duration="64.00" routeLength="475.13" waitingTime="15.00" waitingCount="1" stopTime="0.00" timeLoss="30.71" rerouteNo="0" devices="tripinfo_88" vType="DEFAULT_VEHTYPE" speedFactor="1.06" vaporized=""/>
    <tripinfo id="117" depart="17.00" departLane="113_4way_52to4way_42_0" departPos="5.10" departSpeed="0.00" departDelay="0.29" arrival="77.00" arrivalLane="110_4way_42to4way_41_0" arrivalPos="85.60" arrivalSpeed="11.53" duration="60.00" routeLength="175.13" waitingTime="37.00" waitingCount="1" stopTime="0.00" timeLoss="44.91" rerouteNo="0" devices="tripinfo_117" vType="DEFAULT_VEHTYPE" speedFactor="0.91" vaporized=""/>
    <tripinfo id="285" depart="41.00" departLane="152_4way_67to4way_68_0" departPos="5.10" departSpeed="0.00" departDelay="0.30" arrival="77.00" arrivalLane="43_3way_79to3way_89_0" arrivalPos="85.60" arrivalSpeed="11.90" duration="36.00" routeLength="380.29" waitingTime="0.00" waitingCount="0" stopTime="0.00" timeLoss="4.99" rerouteNo="0" devices="tripinfo_285" vType="DEFAULT_VEHTYPE" speedFactor="0.93" vaporized=""/>
    <tripinfo id="350" depart="51.00" departLane="93_4way_37to4way_27_0" departPos="5.10" departSpeed="0.00" departDelay="1.02" arrival="77.00" arrivalLane="40_4way_17to3way_7_0" arrivalPos="85.60" arrivalSpeed="14.78" duration="26.00" routeLength="280.50" waitingTime="0.00" waitingCount="0" stopTime="0.00" timeLoss="6.71" rerouteNo="0" devices="tripinfo_350" vType="DEFAULT_VEHTYPE" speedFactor="1.07" vaporized=""/>
    <tripinfo id="7" depart="1.00" departLane="7_3way_19to3way_8_0" departPos="5.10" departSpeed="0.00" departDelay="0.00" arrival="78.00" arrivalLane="39_3way_8to3way_7_0" arrivalPos="85.60" arrivalSpeed="12.27" duration="77.00" routeLength="277.30" waitingTime="47.00" waitingCount="1" stopTime="0.00" timeLoss="55.32" rerouteNo="0" devices="tripinfo_7" vType="DEFAULT_VEHTYPE" speedFactor="0.95" vaporized=""/>
    <tripinfo id="21" depart="3.00" departLane="27_3way_6to3way_5_0" departPos="5.10" departSpeed="0.00" departDelay="0.00" arrival="78.00" arrivalLane="89_4way_25to4way_35_0" arrivalPos="85.60" arrivalSpeed="10.30" duration="75.00" routeLength="375.13" waitingTime="29.00" waitingCount="1" stopTime="0.00" timeLoss="40.69" rerouteNo="0" devices="tripinfo_21" vType="DEFAULT_VEHTYPE" speedFactor="0.82" vaporized=""/>
    <tripinfo id="67" depart="10.00" departLane="159_4way_74to4way_73_0" departPos="5.10" departSpeed="0.00" departDelay="0.43" arrival="78.00" arrivalLane="160_4way_73to4way_83_0" arrivalPos="85.60" arrivalSpeed="11.87" duration="68.00" routeLength="175.13" waitingTime="44.00" waitingCount="1" stopTime="0.00" timeLoss="52.27" rerouteNo="0" devices="tripinfo_67" vType="DEFAULT_VEHTYPE" speedFactor="0.88" vaporized=""/>
    <tripinfo id="202" depart="29.00" departLane="68_4way_22to4way_12_0" departPos="5.10" departSpeed="0.00" departDelay="0.15" arrival="78.00" arrivalLane="10_4way_12to3way_2_0" arrivalPos="85.60" arrivalSpeed="12.25" duration="49.00" routeLength="180.50" waitingTime="25.00" waitingCount="1" stopTime="0.00" timeLoss="33.64" rerouteNo="0" devices="tripinfo_202" vType="DEFAULT_VEHTYPE" speedFactor="0.90" vaporized=""/>
    <tripinfo id="317" depart="46.00" departLane="92_4way_28to4way_27_0" departPos="5.10" departSpeed="0.00" departDelay="0.73" arrival="78.00" arrivalLane="92_4way_28to4way_27_0" arrivalPos="85.60" arrivalSpeed="10.90" duration="32.00" routeLength="80.50" waitingTime="16.00" waitingCount="1" stopTime="0.00" timeLoss="26.79" rerouteNo="0" devices="tripinfo_317" vType="DEFAULT_VEHTYPE" speedFactor="1.11" vaporized=""/>
    <tripinfo id="207" depart="30.00" departLane="169_4way_88to4way_78_0" departPos="5.10" departSpeed="0.00" departDelay="0.44" arrival="79.00" arrivalLane="154_4way_78to4way_68_0" arrivalPos="85.60" arrivalSpeed="15.52" duration="49.00" routeLength="180.50" waitingTime="26.00" waitingCount="1" stopTime="0.00" timeLoss="38.18" rerouteNo="0" devices="tripinfo_207" vType="DEFAULT_VEHTYPE" speedFactor="1.24" vaporized=""/>
    <tripinfo id="220" depart="32.00" departLane="167_4way_78to4way_77_0" departPos="5.10" departSpeed="0.00" departDelay="0.58" arrival="79.00" arrivalLane="165_4way_77to4way_76_0" arrivalPos="85.60" arrivalSpeed="11.67" duration="47.00" routeLength="180.50" waitingTime="23.00" waitingCount="1" stopTime="0.00" timeLoss="31.97" rerouteNo="0" devices="tripinfo_220" vType="DEFAULT_VEHTYPE" speedFactor="0.92" vaporized=""/>
    <tripinfo id="226" depart="33.00" departLane="135_4way_57to4way_56_0" departPos="5.10" departSpeed="0.00" departDelay="0.73" arrival="79.00" arrivalLane="149_4way_65to4way_75_0" arrivalPos="85.60" arrivalSpeed="12.73" duration="46.00" routeLength="375.13" waitingTime="6.00" waitingCount="1" stopTime="0.00" timeLoss="17.46" rerouteNo="0" devices="tripinfo_226" vType="DEFAULT_VEHTYPE" speedFactor="0.97" vaporized=""/>
    <tripinfo id="16" depart="3.00" departLane="145_4way_73to4way_63_0" departPos="5.10" departSpeed="0.00" departDelay="0.71" arrival="80.00" arrivalLane="112_4way_43to4way_42_0" arrivalPos="85.60" arrivalSpeed="11.77" duration="77.00" routeLength="375.13" waitingTime="34.00" waitingCount="1" stopTime="0.00" timeLoss="45.49" rerouteNo="0" devices="tripinfo_16" vType="DEFAULT_VEHTYPE" speedFactor="0.90" vaporized=""/>
    <tripinfo id="247" depart="36.00" departLane="24_4way_41to3way_40_0" departPos="5.10" departSpeed="0.00" departDelay="0.73" arrival="80.00" arrivalLane="17_3way_40to3way_30_0" arrivalPos="85.60" arrivalSpeed="14.14" duration="44.00" routeLength="180.29" waitingTime="19.00" waitingCount="1" stopTime="0.00" timeLoss="30.34" rerouteNo="0" devices="tripinfo_247" vType="DEFAULT_VEHTYPE" speedFactor="1.07" vaporized=""/>
    <tripinfo id="398" depart="59.00" departLane="134_4way_55to4way_65_0" departPos="5.10" departSpeed="0.00" departDelay="2.17" arrival="81.00" arrivalLane="148_4way_65to4way_66_0" arrivalPos="85.60" arrivalSpeed="14.52" duration="22.00" routeLength="175.13" waitingTime="0.00" waitingCount="0" stopTime="0.00" timeLoss="9.65" rerouteNo="0" devices="tripinfo_398" vType="DEFAULT_VEHTYPE" speedFactor="1.06" vaporized=""/>
    <tripinfo id="191" depart="28.00" departLane="43_3way_89to3way_79_0" departPos="5.10" departSpeed="0.00" departDelay="0.72" arrival="82.00" arrivalLane="165_4way_77to4way_76_0" arrivalPos="85.60" arrivalSpeed="12.41" duration="54.00" routeLength="375.13" waitingTime="13.00" waitingCount="1" stopTime="0.00" timeLoss="24.11" rerouteNo="0" devices="tripinfo_191" vType="DEFAULT_VEHTYPE" speedFactor="0.94" vaporized=""/>
    <tripinfo id="227" depart="33.00" departLane="30_4way_51to3way_50_0" departPos="5.10" departSpeed="0.00" departDelay="0.58" arrival="82.00" arrivalLane="29_3way_50to3way_60_0" arrivalPos="85.60" arrivalSpeed="13.31" duration="49.00" routeLength="175.13" waitingTime="25.00" waitingCount="1" stopTime="0.00" timeLoss="35.27" rerouteNo="0" devices="tripinfo_227" vType="DEFAULT_VEHTYPE" speedFactor="1.00" vaporized=""/>
    <tripinfo id="303" depart="44.00" departLane="32_3way_59to4way_58_0" departPos="5.10" departSpeed="0.00" departDelay="0.73" arrival="82.00" arrivalLane="139_4way_58to4way_68_0" arrivalPos="85.60" arrivalSpeed="13.35" duration="38.00" routeLength="175.13" waitingTime="13.00" waitingCount="1" stopTime="0.00" timeLoss="24.59" rerouteNo="0" devices="tripinfo_303" vType="DEFAULT_VEHTYPE" speedFactor="1.02" vaporized=""/>
    <tripinfo id="245" depart="35.00" departLane="155_4way_71to4way_72_0" departPos="5.10" departSpeed="0.00" departDelay="0.01" arrival="83.00" arrivalLane="113_4way_52to4way_42_0" arrivalPos="85.60" arrivalSpeed="14.96" duration="48.00" routeLength="375.13" waitingTime="8.00" waitingCount="1" stopTime="0.00" timeLoss="22.76" rerouteNo="0" devices="tripinfo_245" vType="DEFAULT_VEHTYPE" speedFactor="1.15" vaporized=""/>
    <tripinfo id="310" depart="45.00" departLane="118_4way_45to4way_46_0" departPos="5.10" departSpeed="0.00" departDelay="0.73" arrival="83.00" arrivalLane="91_4way_36to4way_26_0" arrivalPos="85.60" arrivalSpeed="10.70" duration="38.00" routeLength="275.13" waitingTime="2.00" waitingCount="1" stopTime="0.00" timeLoss="15.16" rerouteNo="0" devices="tripinfo_310" vType="DEFAULT_VEHTYPE" speedFactor="0.94" vaporized=""/>
    <tripinfo id="173" depart="25.00" departLane="22_3way_4to4way_14_0" departPos="5.10" departSpeed="0.00" departDelay="0.30" arrival="84.00" arrivalLane="132_4way_54to4way_64_0" arrivalPos="85.60" arrivalSpeed="12.31" duration="59.00" routeLength="580.50" waitingTime="0.00" waitingCount="0" stopTime="0.00" timeLoss="11.49" rerouteNo="0" devices="tripinfo_173" vType="DEFAULT_VEHTYPE" speedFactor="0.90" vaporized=""/>
    <tripinfo id="513" depart="74.00" departLane="41_3way_70to3way_80_0" departPos="5.10" departSpeed="0.00" departDelay="0.74" arrival="84.00" arrivalLane="41_3way_70to3way_80_0" arrivalPos="85.60" arrivalSpeed="10.75" duration="10.00" routeLength="80.50" waitingTime="0.00" waitingCount="0" stopTime="0.00" timeLoss="2.82" rerouteNo="0" devices="tripinfo_513" vType="DEFAULT_VEHTYPE" speedFactor="0.85" vaporized=""/>
    <tripinfo id="28" depart="4.00" departLane="50_3way_91to3way_92_0" departPos="5.10" departSpeed="0.00" departDelay="0.00" arrival="85.00" arrivalLane="128_4way_62to4way_52_0" arrivalPos="85.60" arrivalSpeed="13.97" duration="81.00" routeLength="475.13" waitingTime="33.00" waitingCount="1" stopTime="0.00" timeLoss="46.44" rerouteNo="0" devices="tripinfo_28" vType="DEFAULT_VEHTYPE" speedFactor="1.03" vaporized=""/>
    <tripinfo id="47" depart="7.00" departLane="10_3way_2to4way_12_0" departPos="5.10" departSpeed="0.00" departDelay="0.29" arrival="86.00" arrivalLane="69_4way_13to4way_14_0" arrivalPos="85.60" arrivalSpeed="11.84" duration="79.00" routeLength="275.13" waitingTime="48.00" waitingCount="1" stopTime="0.00" timeLoss="55.47" rerouteNo="0" devices="tripinfo_47" vType="DEFAULT_VEHTYPE" speedFactor="0.90" vaporized=""/>
    <tripinfo id="71" depart="11.00" departLane="119_4way_45to4way_55_0" departPos="5.10" departSpeed="0.00" departDelay="0.86" arrival="86.00" arrivalLane="148_4way_65to4way_66_0" arrivalPos="85.60" arrivalSpeed="14.48" duration="75.00" routeLength="275.13" waitingTime="42.00" waitingCount="1" stopTime="0.00" timeLoss="56.31" rerouteNo="0" devices="tripinfo_71" vType="DEFAULT_VEHTYPE" speedFactor="1.13" vaporized=""/>