<?xml version="1.0" encoding="UTF-8"?>

<!-- generated on 2023-11-25 11:59:42 by Eclipse SUMO sumo Version 1.12.0
<configuration xmlns:xsi="http://www.w3.org/2001/XMLSchema-instance" xsi:noNamespaceSchemaLocation="http://sumo.dlr.de/xsd/sumoConfiguration.xsd">

    <input>
        <net-file value="../../data_generation/sapporo_HY.net.xml"/>
        <route-files value="../../data_generation/sapporo_HY.rou.xml"/>
    </input>

    <output>
        <tripinfo-output value="tripinfo.xml"/>
        <statistic-output value="statistic.xml"/>
    </output>

    <time>
        <begin value="0"/>
        <end value="3600"/>
    </time>

    <processing>
        <time-to-teleport value="-1"/>
    </processing>

    <traci_server>
        <remote-port value="46343"/>
    </traci_server>

    <random_number>
        <seed value="2"/>
    </random_number>

    <gui_only>
        <gui-settings-file value="../../data_generation/view_HY_0402.xml"/>
    </gui_only>

</configuration>
-->

<tripinfos xmlns:xsi="http://www.w3.org/2001/XMLSchema-instance" xsi:noNamespaceSchemaLocation="http://sumo.dlr.de/xsd/tripinfo_file.xsd">
    <tripinfo id="7" depart="3.00" departLane="12_3way_B10to3way_A09_0" departPos="5.10" departSpeed="0.00" departDelay="0.41" arrival="22.00" arrivalLane="12_3way_B10to3way_A09_0" arrivalPos="182.40" arrivalSpeed="10.61" duration="19.00" routeLength="177.30" waitingTime="0.00" waitingCount="0" stopTime="0.00" timeLoss="3.23" rerouteNo="0" devices="tripinfo_7" vType="DEFAULT_VEHTYPE" speedFactor="0.81" vaporized=""/>
    <tripinfo id="15" depart="6.00" departLane="107_4way_F02to4way_G02_0" departPos="5.10" departSpeed="0.00" departDelay="0.45" arrival="22.00" arrivalLane="55_4way_G02to3way_H02_0" arrivalPos="85.60" arrivalSpeed="14.52" duration="16.00" routeLength="180.50" waitingTime="0.00" waitingCount="0" stopTime="0.00" timeLoss="3.52" rerouteNo="0" devices="tripinfo_15" vType="DEFAULT_VEHTYPE" speedFactor="1.12" vaporized=""/>
    <tripinfo id="18" depart="7.00" departLane="96_4way_E05to4way_F05_0" departPos="5.10" departSpeed="0.00" departDelay="0.34" arrival="24.00" arrivalLane="113_4way_F05to4way_G05_0" arrivalPos="85.60" arrivalSpeed="13.22" duration="17.00" routeLength="180.50" waitingTime="0.00" waitingCount="0" stopTime="0.00" timeLoss="3.75" rerouteNo="0" devices="tripinfo_18" vType="DEFAULT_VEHTYPE" speedFactor="1.00" vaporized=""/>
    <tripinfo id="16" depart="6.00" departLane="32_3way_D05to4way_D04_0" departPos="5.10" departSpeed="0.00" departDelay="0.08" arrival="25.00" arrivalLane="23_4way_D04to3way_C04_0" arrivalPos="85.60" arrivalSpeed="12.75" duration="19.00" routeLength="180.30" waitingTime="0.00" waitingCount="0" stopTime="0.00" timeLoss="4.90" rerouteNo="0" devices="tripinfo_16" vType="DEFAULT_VEHTYPE" speedFactor="0.98" vaporized=""/>
    <tripinfo id="19" depart="8.00" departLane="20_3way_C03to3way_C04_0" departPos="5.10" departSpeed="0.00" departDelay="0.97" arrival="27.00" arrivalLane="22_3way_C04to4way_B04_0" arrivalPos="85.60" arrivalSpeed="12.76" duration="19.00" routeLength="175.13" waitingTime="0.00" waitingCount="0" stopTime="0.00" timeLoss="4.75" rerouteNo="0" devices="tripinfo_19" vType="DEFAULT_VEHTYPE" speedFactor="0.97" vaporized=""/>
    <tripinfo id="51" depart="19.00" departLane="83_4way_D06to4way_D07_0" departPos="5.10" departSpeed="0.00" departDelay="0.13" arrival="29.00" arrivalLane="83_4way_D06to4way_D07_0" arrivalPos="85.60" arrivalSpeed="13.85" duration="10.00" routeLength="80.50" waitingTime="0.00" waitingCount="0" stopTime="0.00" timeLoss="3.96" rerouteNo="0" devices="tripinfo_51" vType="DEFAULT_VEHTYPE" speedFactor="1.08" vaporized=""/>
    <tripinfo id="34" depart="13.00" departLane="88_4way_D08to4way_E08_0" departPos="5.10" departSpeed="0.00" departDelay="0.42" arrival="38.00" arrivalLane="119_4way_F08to4way_G08_0" arrivalPos="85.60" arrivalSpeed="12.82" duration="25.00" routeLength="280.50" waitingTime="0.00" waitingCount="0" stopTime="0.00" timeLoss="4.13" rerouteNo="0" devices="tripinfo_34" vType="DEFAULT_VEHTYPE" speedFactor="0.98" vaporized=""/>
    <tripinfo id="73" depart="28.00" departLane="47_4way_F09to3way_F10_0" departPos="5.10" departSpeed="0.00" departDelay="0.99" arrival="38.00" arrivalLane="47_4way_F09to3way_F10_0" arrivalPos="85.60" arrivalSpeed="12.04" duration="10.00" routeLength="80.50" waitingTime="0.00" waitingCount="0" stopTime="0.00" timeLoss="3.00" rerouteNo="0" devices="tripinfo_73" vType="DEFAULT_VEHTYPE" speedFactor="0.91" vaporized=""/>
    <tripinfo id="77" depart="29.00" departLane="11_3way_A08to4way_B08_0" departPos="5.10" departSpeed="0.00" departDelay="0.51" arrival="39.00" arrivalLane="11_3way_A08to4way_B08_0" arrivalPos="85.60" arrivalSpeed="12.28" duration="10.00" routeLength="80.50" waitingTime="0.00" waitingCount="0" stopTime="0.00" timeLoss="3.14" rerouteNo="0" devices="tripinfo_77" vType="DEFAULT_VEHTYPE" speedFactor="0.93" vaporized=""/>
    <tripinfo id="81" depart="30.00" departLane="3_4way_B04to3way_A04_0" departPos="5.10" departSpeed="0.00" departDelay="0.03" arrival="40.00" arrivalLane="3_4way_B04to3way_A04_0" arrivalPos="85.60" arrivalSpeed="11.60" duration="10.00" routeLength="80.50" waitingTime="0.00" waitingCount="0" stopTime="0.00" timeLoss="2.82" rerouteNo="0" devices="tripinfo_81" vType="DEFAULT_VEHTYPE" speedFactor="0.87" vaporized=""/>
    <tripinfo id="80" depart="33.00" departLane="119_4way_F08to4way_G08_0" departPos="5.10" departSpeed="0.00" departDelay="3.40" arrival="42.00" arrivalLane="119_4way_F08to4way_G08_0" arrivalPos="85.60" arrivalSpeed="13.79" duration="9.00" routeLength="80.50" waitingTime="0.00" waitingCount="0" stopTime="0.00" timeLoss="3.18" rerouteNo="0" devices="tripinfo_80" vType="DEFAULT_VEHTYPE" speedFactor="1.06" vaporized=""/>
    <tripinfo id="63" depart="24.00" departLane="74_4way_B09to4way_C09_0" departPos="5.10" departSpeed="0.00" departDelay="0.69" arrival="43.00" arrivalLane="79_4way_C09to4way_D09_0" arrivalPos="85.60" arrivalSpeed="10.89" duration="19.00" routeLength="180.50" waitingTime="0.00" waitingCount="0" stopTime="0.00" timeLoss="3.82" rerouteNo="0" devices="tripinfo_63" vType="DEFAULT_VEHTYPE" speedFactor="0.86" vaporized=""/>
    <tripinfo id="70" depart="26.00" departLane="95_4way_E06to4way_E05_0" departPos="5.10" departSpeed="0.00" departDelay="0.10" arrival="47.00" arrivalLane="96_4way_E05to4way_F05_0" arrivalPos="85.60" arrivalSpeed="10.26" duration="21.00" routeLength="175.13" waitingTime="0.00" waitingCount="0" stopTime="0.00" timeLoss="4.65" rerouteNo="0" devices="tripinfo_70" vType="DEFAULT_VEHTYPE" speedFactor="0.82" vaporized=""/>
    <tripinfo id="46" depart="18.00" departLane="4_3way_A05to3way_A06_0" departPos="5.10" departSpeed="0.00" departDelay="0.98" arrival="55.00" arrivalLane="76_4way_C07to4way_D07_0" arrivalPos="85.60" arrivalSpeed="15.07" duration="37.00" routeLength="480.30" waitingTime="0.00" waitingCount="0" stopTime="0.00" timeLoss="5.39" rerouteNo="0" devices="tripinfo_46" vType="DEFAULT_VEHTYPE" speedFactor="1.12" vaporized=""/>
    <tripinfo id="66" depart="25.00" departLane="91_4way_E03to4way_E04_0" departPos="5.10" departSpeed="0.00" departDelay="0.58" arrival="56.00" arrivalLane="84_4way_E06to4way_D06_0" arrivalPos="85.60" arrivalSpeed="15.79" duration="31.00" routeLength="375.13" waitingTime="0.00" waitingCount="0" stopTime="0.00" timeLoss="8.23" rerouteNo="0" devices="tripinfo_66" vType="DEFAULT_VEHTYPE" speedFactor="1.21" vaporized=""/>
    <tripinfo id="116" depart="43.00" departLane="24_3way_C06to4way_B06_0" departPos="5.10" departSpeed="0.00" departDelay="0.08" arrival="62.00" arrivalLane="17_4way_B06to3way_B05_0" arrivalPos="85.60" arrivalSpeed="13.11" duration="19.00" routeLength="175.13" waitingTime="0.00" waitingCount="0" stopTime="0.00" timeLoss="4.70" rerouteNo="0" devices="tripinfo_116" vType="DEFAULT_VEHTYPE" speedFactor="0.94" vaporized=""/>
    <tripinfo id="48" depart="18.00" departLane="55_3way_H02to4way_G02_0" departPos="5.10" departSpeed="0.00" departDelay="0.24" arrival="66.00" arrivalLane="91_4way_E03to4way_E04_0" arrivalPos="85.60" arrivalSpeed="11.59" duration="48.00" routeLength="480.29" waitingTime="0.00" waitingCount="0" stopTime="0.00" timeLoss="5.96" rerouteNo="0" devices="tripinfo_48" vType="DEFAULT_VEHTYPE" speedFactor="0.84" vaporized=""/>
    <tripinfo id="157" depart="59.00" departLane="102_4way_E08to4way_F08_0" departPos="5.10" departSpeed="0.00" departDelay="0.91" arrival="68.00" arrivalLane="102_4way_E08to4way_F08_0" arrivalPos="85.60" arrivalSpeed="13.03" duration="9.00" routeLength="80.50" waitingTime="0.00" waitingCount="0" stopTime="0.00" timeLoss="3.14" rerouteNo="0" devices="tripinfo_157" vType="DEFAULT_VEHTYPE" speedFactor="1.00" vaporized=""/>
    <tripinfo id="130" depart="49.00" departLane="108_4way_F03to4way_F04_0" departPos="5.10" departSpeed="0.00" departDelay="0.90" arrival="69.00" arrivalLane="94_4way_F04to4way_E04_0" arrivalPos="85.60" arrivalSpeed="12.12" duration="20.00" routeLength="175.13" waitingTime="0.00" waitingCount="0" stopTime="0.00" timeLoss="5.52" rerouteNo="0" devices="tripinfo_130" vType="DEFAULT_VEHTYPE" speedFactor="0.92" vaporized=""/>
    <tripinfo id="100" depart="37.00" departLane="8_3way_A08to3way_A07_0" departPos="5.10" departSpeed="0.00" departDelay="0.00" arrival="70.00" arrivalLane="4_3way_A06to3way_A05_0" arrivalPos="85.60" arrivalSpeed="5.17" duration="33.00" routeLength="280.50" waitingTime="7.00" waitingCount="1" stopTime="0.00" timeLoss="14.65" rerouteNo="0" devices="tripinfo_100" vType="DEFAULT_VEHTYPE" speedFactor="1.10" vaporized=""/>
    <tripinfo id="135" depart="51.00" departLane="125_4way_G06to4way_G05_0" departPos="5.10" departSpeed="0.00" departDelay="1.05" arrival="70.00" arrivalLane="61_4way_G05to3way_H05_0" arrivalPos="85.60" arrivalSpeed="13.91" duration="19.00" routeLength="175.13" waitingTime="0.00" waitingCount="0" stopTime="0.00" timeLoss="5.53" rerouteNo="0" devices="tripinfo_135" vType="DEFAULT_VEHTYPE" speedFactor="1.03" vaporized=""/>
    <tripinfo id="65" depart="25.00" departLane="83_4way_D07to4way_D06_0" departPos="5.10" departSpeed="0.00" departDelay="0.95" arrival="71.00" arrivalLane="83_4way_D07to4way_D06_0" arrivalPos="85.60" arrivalSpeed="6.49" duration="46.00" routeLength="80.50" waitingTime="31.00" waitingCount="1" stopTime="0.00" timeLoss="39.67" rerouteNo="0" devices="tripinfo_65" vType="DEFAULT_VEHTYPE" speedFactor="0.98" vaporized=""/>
    <tripinfo id="165" depart="62.00" departLane="106_4way_F02to4way_F03_0" departPos="5.10" departSpeed="0.00" departDelay="0.95" arrival="71.00" arrivalLane="106_4way_F02to4way_F03_0" arrivalPos="85.60" arrivalSpeed="13.81" duration="9.00" routeLength="80.50" waitingTime="0.00" waitingCount="0" stopTime="0.00" timeLoss="3.21" rerouteNo="0" devices="tripinfo_165" vType="DEFAULT_VEHTYPE" speedFactor="1.05" vaporized=""/>
    <tripinfo id="17" depart="7.00" departLane="79_4way_D09to4way_C09_0" departPos="5.10" departSpeed="0.00" departDelay="0.71" arrival="73.00" arrivalLane="4_3way_A06to3way_A05_0" arrivalPos="85.60" arrivalSpeed="8.76" duration="66.00" routeLength="675.13" waitingTime="5.00" waitingCount="1" stopTime="0.00" timeLoss="17.53" rerouteNo="0" devices="tripinfo_17" vType="DEFAULT_VEHTYPE" speedFactor="1.03" vaporized=""/>
    <tripinfo id="154" depart="57.00" departLane="12_3way_B10to3way_A09_0" departPos="5.10" departSpeed="0.00" departDelay="0.02" arrival="73.00" arrivalLane="12_3way_B10to3way_A09_0" arrivalPos="182.40" arrivalSpeed="14.88" duration="16.00" routeLength="177.30" waitingTime="0.00" waitingCount="0" stopTime="0.00" timeLoss="3.98" rerouteNo="0" devices="tripinfo_154" vType="DEFAULT_VEHTYPE" speedFactor="1.08" vaporized=""/>
    <tripinfo id="174" depart="65.00" departLane="74_4way_C09to4way_B09_0" departPos="5.10" departSpeed="0.00" departDelay="0.62" arrival="74.00" arrivalLane="74_4way_C09to4way_B09_0" arrivalPos="85.60" arrivalSpeed="14.45" duration="9.00" routeLength="80.50" waitingTime="0.00" waitingCount="0" stopTime="0.00" timeLoss="3.49" rerouteNo="0" devices="tripinfo_174" vType="DEFAULT_VEHTYPE" speedFactor="1.09" vaporized=""/>
    <tripinfo id="76" depart="29.00" departLane="34_3way_D05to4way_E05_0" departPos="5.10" departSpeed="0.00" departDelay="0.88" arrival="77.00" arrivalLane="96_4way_E05to4way_F05_0" arrivalPos="85.60" arrivalSpeed="14.52" duration="48.00" routeLength="180.50" waitingTime="26.00" waitingCount="1" stopTime="0.00" timeLoss="35.34" rerouteNo="0" devices="tripinfo_76" vType="DEFAULT_VEHTYPE" speedFactor="1.06" vaporized=""/>
    <tripinfo id="58" depart="22.00" departLane="77_4way_C09to4way_C08_0" departPos="5.10" departSpeed="0.00" departDelay="0.54" arrival="78.00" arrivalLane="88_4way_D08to4way_E08_0" arrivalPos="85.60" arrivalSpeed="10.03" duration="56.00" routeLength="275.13" waitingTime="20.00" waitingCount="1" stopTime="0.00" timeLoss="30.49" rerouteNo="0" devices="tripinfo_58" vType="DEFAULT_VEHTYPE" speedFactor="0.81" vaporized=""/>
    <tripinfo id="184" depart="69.00" departLane="90_4way_E01to4way_F01_0" departPos="5.10" departSpeed="0.00" departDelay="0.92" arrival="78.00" arrivalLane="90_4way_E01to4way_F01_0" arrivalPos="85.60" arrivalSpeed="13.37" duration="9.00" routeLength="80.50" waitingTime="0.00" waitingCount="0" stopTime="0.00" timeLoss="2.97" rerouteNo="0" devices="tripinfo_184" vType="DEFAULT_VEHTYPE" speedFactor="0.97" vaporized=""/>
    <tripinfo id="136" depart="51.00" departLane="111_4way_F04to4way_G04_0" departPos="5.10" departSpeed="0.00" departDelay="0.68" arrival="80.00" arrivalLane="124_4way_G04to4way_G05_0" arrivalPos="85.60" arrivalSpeed="12.20" duration="29.00" routeLength="175.13" waitingTime="5.00" waitingCount="1" stopTime="0.00" timeLoss="14.32" rerouteNo="0" devices="tripinfo_136" vType="DEFAULT_VEHTYPE" speedFactor="0.96" vaporized=""/>
    <tripinfo id="0" depart="0.00" departLane="86_4way_E07to4way_D07_0" departPos="5.10" departSpeed="0.00" departDelay="0.00" arrival="85.00" arrivalLane="32_3way_D05to4way_D04_0" arrivalPos="85.60" arrivalSpeed="13.44" duration="85.00" routeLength="375.13" waitingTime="44.00" waitingCount="1" stopTime="0.00" timeLoss="56.12" rerouteNo="0" devices="tripinfo_0" vType="DEFAULT_VEHTYPE" speedFactor="0.97" vaporized=""/>
    <tripinfo id="207" depart="77.00" departLane="128_4way_G09to4way_G08_0" departPos="5.10" departSpeed="0.00" departDelay="0.41" arrival="86.00" arrivalLane="128_4way_G09to4way_G08_0" arrivalPos="85.60" arrivalSpeed="15.60" duration="9.00" routeLength="80.50" waitingTime="0.00" waitingCount="0" stopTime="0.00" timeLoss="3.78" rerouteNo="0" devices="tripinfo_207" vType="DEFAULT_VEHTYPE" speedFactor="1.22" vaporized=""/>
    <tripinfo id="206" depart="78.00" departLane="36_4way_D09to3way_D10_0" departPos="5.10" departSpeed="0.00" departDelay="1.78" arrival="87.00" arrivalLane="36_4way_D09to3way_D10_0" arrivalPos="85.60" arrivalSpeed="15.34" duration="9.00" routeLength="80.50" waitingTime="0.00" waitingCount="0" stopTime="0.00" timeLoss="3.57" rerouteNo="0" devices="tripinfo_206" vType="DEFAULT_VEHTYPE" speedFactor="1.16" vaporized=""/>
    <tripinfo id="28" depart="11.00" departLane="27_3way_C10to3way_D10_0" departPos="5.10" departSpeed="0.00" departDelay="0.64" arrival="88.00" arrivalLane="46_3way_F10to3way_G10_0" arrivalPos="85.60" arrivalSpeed="11.13" duration="77.00" routeLength="380.50" waitingTime="35.00" waitingCount="1" stopTime="0.00" timeLoss="44.21" rerouteNo="0" devices="tripinfo_28" vType="DEFAULT_VEHTYPE" speedFactor="0.86" vaporized=""/>
    <tripinfo id="67" depart="25.00" departLane="21_3way_C03to4way_D03_0" departPos="5.10" departSpeed="0.00" departDelay="0.21" arrival="88.00" arrivalLane="40_4way_E03to3way_E02_0" arrivalPos="85.60" arrivalSpeed="12.66" duration="63.00" routeLength="280.30" waitingTime="28.00" waitingCount="1" stopTime="0.00" timeLoss="40.19" rerouteNo="0" devices="tripinfo_67" vType="DEFAULT_VEHTYPE" speedFactor="0.94" vaporized=""/>
    <tripinfo id="95" depart="37.00" departLane="78_4way_C08to4way_D08_0" departPos="5.10" departSpeed="0.00" departDelay="1.85" arrival="89.00" arrivalLane="101_4way_E08to4way_E09_0" arrivalPos="85.60" arrivalSpeed="14.08" duration="52.00" routeLength="275.13" waitingTime="20.00" waitingCount="1" stopTime="0.00" timeLoss="32.81" rerouteNo="0" devices="tripinfo_95" vType="DEFAULT_VEHTYPE" speedFactor="1.08" vaporized=""/>
    <tripinfo id="74" depart="28.00" departLane="36_4way_D09to3way_D10_0" departPos="5.10" departSpeed="0.00" departDelay="0.62" arrival="93.00" arrivalLane="46_3way_F10to3way_G10_0" arrivalPos="85.60" arrivalSpeed="12.83" duration="65.00" routeLength="380.29" waitingTime="27.00" waitingCount="1" stopTime="0.00" timeLoss="36.20" rerouteNo="0" devices="tripinfo_74" vType="DEFAULT_VEHTYPE" speedFactor="1.00" vaporized=""/>
    <tripinfo id="126" depart="47.00" departLane="83_4way_D07to4way_D06_0" departPos="5.10" departSpeed="0.00" departDelay="0.38" arrival="94.00" arrivalLane="32_3way_D05to4way_D04_0" arrivalPos="85.60" arrivalSpeed="14.14" duration="47.00" routeLength="280.50" waitingTime="13.00" waitingCount="1" stopTime="0.00" timeLoss="27.95" rerouteNo="0" devices="tripinfo_126" vType="DEFAULT_VEHTYPE" speedFactor="1.06" vaporized=""/>
    <tripinfo id="88" depart="33.00" departLane="36_4way_D09to3way_D10_0" departPos="5.10" departSpeed="0.00" departDelay="0.44" arrival="96.00" arrivalLane="46_3way_F10to3way_G10_0" arrivalPos="85.60" arrivalSpeed="12.95" duration="63.00" routeLength="380.29" waitingTime="24.00" waitingCount="1" stopTime="0.00" timeLoss="32.65" rerouteNo="0" devices="tripinfo_88" vType="DEFAULT_VEHTYPE" speedFactor="0.93" vaporized=""/>
    <tripinfo id="224" depart="83.00" departLane="60_3way_H05to3way_H06_0" departPos="5.10" departSpeed="0.00" departDelay="0.12" arrival="101.00" arrivalLane="63_3way_H06to4way_G06_0" arrivalPos="85.60" arrivalSpeed="14.15" duration="18.00" routeLength="175.13" waitingTime="0.00" waitingCount="0" stopTime="0.00" timeLoss="5.12" rerouteNo="0" devices="tripinfo_224" vType="DEFAULT_VEHTYPE" speedFactor="1.02" vaporized=""/>
    <tripinfo id="9" depart="4.00" departLane="118_4way_F09to4way_F08_0" departPos="5.10" departSpeed="0.00" departDelay="0.67" arrival="107.00" arrivalLane="108_4way_F04to4way_F03_0" arrivalPos="85.60" arrivalSpeed="14.17" duration="103.00" routeLength="580.50" waitingTime="52.00" waitingCount="1" stopTime="0.00" timeLoss="62.04" rerouteNo="0" devices="tripinfo_9" vType="DEFAULT_VEHTYPE" speedFactor="1.04" vaporized=""/>
    <tripinfo id="248" depart="92.00" departLane="90_4way_F01to4way_E01_0" departPos="5.10" departSpeed="0.00" departDelay="0.24" arrival="108.00" arrivalLane="31_4way_E01to3way_D01_0" arrivalPos="85.60" arrivalSpeed="14.19" duration="16.00" routeLength="180.50" waitingTime="0.00" waitingCount="0" stopTime="0.00" timeLoss="3.27" rerouteNo="0" devices="tripinfo_248" vType="DEFAULT_VEHTYPE" speedFactor="1.06" vaporized=""/>
    <tripinfo id="187" depart="71.00" departLane="83_4way_D07to4way_D06_0" departPos="5.10" departSpeed="0.00" departDelay="1.81" arrival="113.00" arrivalLane="23_4way_D04to3way_C04_0" arrivalPos="85.60" arrivalSpeed="12.37" duration="42.00" routeLength="380.30" waitingTime="0.00" waitingCount="0" stopTime="0.00" timeLoss="13.06" rerouteNo="0" devices="tripinfo_187" vType="DEFAULT_VEHTYPE" speedFactor="0.98" vaporized=""/>
    <tripinfo id="191" depart="71.00" departLane="46_3way_G10to3way_F10_0" departPos="5.10" departSpeed="0.00" departDelay="0.33" arrival="118.00" arrivalLane="112_4way_F06to4way_F05_0" arrivalPos="85.60" arrivalSpeed="14.94" duration="47.00" routeLength="575.13" waitingTime="0.00" waitingCount="0" stopTime="0.00" timeLoss="6.90" rerouteNo="0" devices="tripinfo_191" vType="DEFAULT_VEHTYPE" speedFactor="1.08" vaporized=""/>
    <tripinfo id="278" depart="103.00" departLane="118_4way_F09to4way_F08_0" departPos="5.10" departSpeed="0.00" departDelay="0.14" arrival="125.00" arrivalLane="119_4way_F08to4way_G08_0" arrivalPos="85.60" arrivalSpeed="10.91" duration="22.00" routeLength="175.13" waitingTime="0.00" waitingCount="0" stopTime="0.00" timeLoss="4.69" rerouteNo="0" devices="tripinfo_278" vType="DEFAULT_VEHTYPE" speedFactor="0.79" vaporized=""/>
    <tripinfo id="6" depart="3.00" departLane="124_4way_G04to4way_G05_0" departPos="5.10" departSpeed="0.00" departDelay="0.78" arrival="130.00" arrivalLane="34_4way_E05to3way_D05_0" arrivalPos="85.60" arrivalSpeed="5.46" duration="127.00" routeLength="375.13" waitingTime="82.00" waitingCount="2" stopTime="0.00" timeLoss="100.13" rerouteNo="0" devices="tripinfo_6" vType="DEFAULT_VEHTYPE" speedFactor="1.03" vaporized=""/>
    <tripinfo id="75" depart="28.00" departLane="118_4way_F08to4way_F09_0" departPos="5.10" departSpeed="0.00" departDelay="0.25" arrival="130.00" arrivalLane="35_3way_E10to3way_D10_0" arrivalPos="85.60" arrivalSpeed="4.89" duration="102.00" routeLength="375.13" waitingTime="59.00" waitingCount="2" stopTime="0.00" timeLoss="73.31" rerouteNo="0" devices="tripinfo_75" vType="DEFAULT_VEHTYPE" speedFactor="0.96" vaporized=""/>
    <tripinfo id="92" depart="35.00" departLane="45_3way_F00to4way_F01_0" departPos="5.10" departSpeed="0.00" departDelay="0.96" arrival="130.00" arrivalLane="102_4way_F08to4way_E08_0" arrivalPos="85.60" arrivalSpeed="12.74" duration="95.00" routeLength="875.13" waitingTime="13.00" waitingCount="1" stopTime="0.00" timeLoss="30.46" rerouteNo="0" devices="tripinfo_92" vType="DEFAULT_VEHTYPE" speedFactor="0.99" vaporized=""/>
    <tripinfo id="1" depart="1.00" departLane="32_4way_D04to3way_D05_0" departPos="5.10" departSpeed="0.00" departDelay="0.63" arrival="131.00" arrivalLane="85_4way_D07to4way_D08_0" arrivalPos="85.60" arrivalSpeed="5.15" duration="130.00" routeLength="380.50" waitingTime="86.00" waitingCount="2" stopTime="0.00" timeLoss="102.71" rerouteNo="0" devices="tripinfo_1" vType="DEFAULT_VEHTYPE" speedFactor="1.01" vaporized=""/>
    <tripinfo id="193" depart="72.00" departLane="13_4way_B09to3way_A09_0" departPos="5.10" departSpeed="0.00" departDelay="0.59" arrival="132.00" arrivalLane="10_3way_A09to3way_A08_0" arrivalPos="85.60" arrivalSpeed="7.81" duration="60.00" routeLength="175.13" waitingTime="37.00" waitingCount="1" stopTime="0.00" timeLoss="46.79" rerouteNo="0" devices="tripinfo_193" vType="DEFAULT_VEHTYPE" speedFactor="1.00" vaporized=""/>
    <tripinfo id="329" depart="122.00" departLane="70_4way_B07to4way_B08_0" departPos="5.10" departSpeed="0.00" departDelay="0.27" arrival="132.00" arrivalLane="70_4way_B07to4way_B08_0" arrivalPos="85.60" arrivalSpeed="15.09" duration="10.00" routeLength="80.50" waitingTime="0.00" waitingCount="0" stopTime="0.00" timeLoss="4.03" rerouteNo="0" devices="tripinfo_329" vType="DEFAULT_VEHTYPE" speedFactor="1.12" vaporized=""/>
    <tripinfo id="147" depart="55.00" departLane="127_4way_G07to4way_G08_0" departPos="5.10" departSpeed="0.00" departDelay="0.61" arrival="133.00" arrivalLane="127_4way_G07to4way_G08_0" arrivalPos="85.60" arrivalSpeed="8.36" duration="78.00" routeLength="80.50" waitingTime="63.00" waitingCount="1" stopTime="0.00" timeLoss="72.69" rerouteNo="0" devices="tripinfo_147" vType="DEFAULT_VEHTYPE" speedFactor="1.18" vaporized=""/>
    <tripinfo id="268" depart="100.00" departLane="85_4way_D07to4way_D08_0" departPos="5.10" departSpeed="0.00" departDelay="0.84" arrival="133.00" arrivalLane="85_4way_D07to4way_D08_0" arrivalPos="85.60" arrivalSpeed="7.53" duration="33.00" routeLength="80.50" waitingTime="18.00" waitingCount="1" stopTime="0.00" timeLoss="27.13" rerouteNo="0" devices="tripinfo_268" vType="DEFAULT_VEHTYPE" speedFactor="0.99" vaporized=""/>
    <tripinfo id="315" depart="117.00" departLane="27_3way_C10to3way_D10_0" departPos="5.10" departSpeed="0.00" departDelay="0.45" arrival="133.00" arrivalLane="27_3way_C10to3way_D10_0" arrivalPos="85.60" arrivalSpeed="4.43" duration="16.00" routeLength="80.50" waitingTime="0.00" waitingCount="0" stopTime="0.00" timeLoss="10.13" rerouteNo="0" devices="tripinfo_315" vType="DEFAULT_VEHTYPE" speedFactor="1.03" vaporized=""/>
    <tripinfo id="179" depart="67.00" departLane="23_3way_C04to4way_D04_0" departPos="5.10" departSpeed="0.00" departDelay="0.77" arrival="135.00" arrivalLane="23_3way_C04to4way_D04_0" arrivalPos="85.60" arrivalSpeed="8.76" duration="68.00" routeLength="80.50" waitingTime="52.00" waitingCount="1" stopTime="0.00" timeLoss="61.45" rerouteNo="0" devices="tripinfo_179" vType="DEFAULT_VEHTYPE" speedFactor="0.92" vaporized=""/>
    <tripinfo id="295" depart="110.00" departLane="24_3way_C06to4way_B06_0" departPos="5.10" departSpeed="0.00" departDelay="0.85" arrival="137.00" arrivalLane="17_4way_B06to3way_B05_0" arrivalPos="85.60" arrivalSpeed="13.62" duration="27.00" routeLength="175.13" waitingTime="4.00" waitingCount="1" stopTime="0.00" timeLoss="12.97" rerouteNo="0" devices="tripinfo_295" vType="DEFAULT_VEHTYPE" speedFactor="0.99" vaporized=""/>
    <tripinfo id="53" depart="20.00" departLane="100_4way_F07to4way_E07_0" departPos="5.10" departSpeed="0.00" departDelay="0.39" arrival="138.00" arrivalLane="23_4way_D04to3way_C04_0" arrivalPos="85.60" arrivalSpeed="10.65" duration="118.00" routeLength="574.93" waitingTime="52.00" waitingCount="1" stopTime="0.00" timeLoss="65.85" rerouteNo="0" devices="tripinfo_53" vType="DEFAULT_VEHTYPE" speedFactor="0.83" vaporized=""/>
    <tripinfo id="259" depart="96.00" departLane="5_3way_B05to3way_A05_0" departPos="5.10" departSpeed="0.00" departDelay="0.17" arrival="138.00" arrivalLane="1_3way_A05to3way_A04_0" arrivalPos="85.60" arrivalSpeed="13.78" duration="42.00" routeLength="175.13" waitingTime="20.00" waitingCount="1" stopTime="0.00" timeLoss="27.62" rerouteNo="0" devices="tripinfo_259" vType="DEFAULT_VEHTYPE" speedFactor="0.99" vaporized=""/>
    <tripinfo id="109" depart="41.00" departLane="108_4way_F04to4way_F03_0" departPos="5.10" departSpeed="0.00" departDelay="0.67" arrival="139.00" arrivalLane="55_4way_G02to3way_H02_0" arrivalPos="85.60" arrivalSpeed="12.50" duration="98.00" routeLength="375.13" waitingTime="52.00" waitingCount="2" stopTime="0.00" timeLoss="67.58" rerouteNo="0" devices="tripinfo_109" vType="DEFAULT_VEHTYPE" speedFactor="0.91" vaporized=""/>
    <tripinfo id="42" depart="16.00" departLane="124_4way_G04to4way_G05_0" departPos="5.10" departSpeed="0.00" departDelay="0.46" arrival="141.00" arrivalLane="33_3way_D05to4way_D06_0" arrivalPos="85.60" arrivalSpeed="14.74" duration="125.00" routeLength="474.92" waitingTime="73.00" waitingCount="2" stopTime="0.00" timeLoss="93.58" rerouteNo="0" devices="tripinfo_42" vType="DEFAULT_VEHTYPE" speedFactor="1.15" vaporized=""/>
    <tripinfo id="90" depart="34.00" departLane="87_4way_D09to4way_D08_0" departPos="5.10" departSpeed="0.00" departDelay="0.70" arrival="141.00" arrivalLane="113_4way_F05to4way_G05_0" arrivalPos="85.60" arrivalSpeed="10.72" duration="107.00" routeLength="675.13" waitingTime="23.00" waitingCount="2" stopTime="0.00" timeLoss="44.40" rerouteNo="0" devices="tripinfo_90" vType="DEFAULT_VEHTYPE" speedFactor="0.80" vaporized=""/>
    <tripinfo id="101" depart="38.00" departLane="23_3way_C04to4way_D04_0" departPos="5.10" departSpeed="0.00" departDelay="0.63" arrival="142.00" arrivalLane="82_4way_D04to4way_E04_0" arrivalPos="85.60" arrivalSpeed="8.37" duration="104.00" routeLength="180.50" waitingTime="81.00" waitingCount="1" stopTime="0.00" timeLoss="92.06" rerouteNo="0" devices="tripinfo_101" vType="DEFAULT_VEHTYPE" speedFactor="1.10" vaporized=""/>
    <tripinfo id="355" depart="132.00" departLane="21_4way_D03to3way_C03_0" departPos="5.10" departSpeed="0.00" departDelay="0.65" arrival="142.00" arrivalLane="21_4way_D03to3way_C03_0" arrivalPos="85.60" arrivalSpeed="9.95" duration="10.00" routeLength="80.50" waitingTime="0.00" waitingCount="0" stopTime="0.00" timeLoss="2.27" rerouteNo="0" devices="tripinfo_355" vType="DEFAULT_VEHTYPE" speedFactor="0.77" vaporized=""/>
    <tripinfo id="79" depart="30.00" departLane="103_4way_F09to4way_E09_0" departPos="5.10" departSpeed="0.00" departDelay="0.77" arrival="143.00" arrivalLane="99_4way_E08to4way_E07_0" arrivalPos="85.60" arrivalSpeed="14.81" duration="113.00" routeLength="275.13" waitingTime="76.00" waitingCount="2" stopTime="0.00" timeLoss="94.78" rerouteNo="0" devices="tripinfo_79" vType="DEFAULT_VEHTYPE" speedFactor="1.17" vaporized=""/>
    <tripinfo id="44" depart="17.00" departLane="99_4way_E07to4way_E08_0" departPos="5.10" departSpeed="0.00" departDelay="0.72" arrival="144.00" arrivalLane="43_4way_E09to3way_E10_0" arrivalPos="85.60" arrivalSpeed="13.10" duration="127.00" routeLength="280.50" waitingTime="98.00" waitingCount="1" stopTime="0.00" timeLoss="106.75" rerouteNo="0" devices="tripinfo_44" vType="DEFAULT_VEHTYPE" speedFactor="1.02" vaporized=""/>
    <tripinfo id="302" depart="112.00" departLane="14_3way_B03to3way_C03_0" departPos="5.10" departSpeed="0.00" departDelay="0.26" arrival="144.00" arrivalLane="20_3way_C03to3way_C04_0" arrivalPos="85.60" arrivalSpeed="12.98" duration="32.00" routeLength="175.13" waitingTime="7.00" waitingCount="1" stopTime="0.00" timeLoss="18.57" rerouteNo="0" devices="tripinfo_302" vType="DEFAULT_VEHTYPE" speedFactor="1.03" vaporized=""/>
    <tripinfo id="85" depart="32.00" departLane="61_3way_H05to4way_G05_0" departPos="5.10" departSpeed="0.00" departDelay="0.55" arrival="145.00" arrivalLane="110_4way_F05to4way_F04_0" arrivalPos="85.60" arrivalSpeed="15.06" duration="113.00" routeLength="275.13" waitingTime="84.00" waitingCount="1" stopTime="0.00" timeLoss="94.97" rerouteNo="0" devices="tripinfo_85" vType="DEFAULT_VEHTYPE" speedFactor="1.15" vaporized=""/>