<?xml version="1.0" encoding="UTF-8"?>

<!-- generated on 2023-08-29 06:14:22 by Eclipse SUMO sumo Version 1.12.0
<configuration xmlns:xsi="http://www.w3.org/2001/XMLSchema-instance" xsi:noNamespaceSchemaLocation="http://sumo.dlr.de/xsd/sumoConfiguration.xsd">

    <input>
        <net-file value="../../data_generation/sq.net.xml"/>
        <route-files value="../../data_generation/sq.rou.xml"/>
    </input>

    <output>
        <tripinfo-output value="tripinfo.xml"/>
        <statistic-output value="statistic.xml"/>
    </output>

    <time>
        <begin value="0"/>
        <end value="3600"/>
    </time>

    <processing>
        <time-to-teleport value="-1"/>
    </processing>

    <traci_server>
        <remote-port value="45071"/>
    </traci_server>

    <random_number>
        <seed value="1395"/>
    </random_number>

    <gui_only>
        <gui-settings-file value="../../data_generation/view_HY_0402.xml"/>
    </gui_only>

</configuration>
-->

<tripinfos xmlns:xsi="http://www.w3.org/2001/XMLSchema-instance" xsi:noNamespaceSchemaLocation="http://sumo.dlr.de/xsd/tripinfo_file.xsd">
    <tripinfo id="22" depart="2.00" departLane="1159_4way_90to4way_65_0" departPos="5.10" departSpeed="0.00" departDelay="0.15" arrival="19.00" arrivalLane="777_4way_65to4way_40_0" arrivalPos="85.60" arrivalSpeed="12.93" duration="17.00" routeLength="180.50" waitingTime="0.00" waitingCount="0" stopTime="0.00" timeLoss="3.20" rerouteNo="0" devices="tripinfo_22" vType="DEFAULT_VEHTYPE" speedFactor="1.00" vaporized=""/>
    <tripinfo id="198" depart="17.00" departLane="689_4way_381to4way_356_0" departPos="5.10" departSpeed="0.00" departDelay="0.33" arrival="27.00" arrivalLane="689_4way_381to4way_356_0" arrivalPos="85.60" arrivalSpeed="12.05" duration="10.00" routeLength="80.50" waitingTime="0.00" waitingCount="0" stopTime="0.00" timeLoss="3.19" rerouteNo="0" devices="tripinfo_198" vType="DEFAULT_VEHTYPE" speedFactor="0.87" vaporized=""/>
    <tripinfo id="213" depart="18.00" departLane="97_3way_474to3way_449_0" departPos="5.10" departSpeed="0.00" departDelay="0.06" arrival="38.00" arrivalLane="98_3way_449to4way_448_0" arrivalPos="85.60" arrivalSpeed="12.52" duration="20.00" routeLength="175.13" waitingTime="0.00" waitingCount="0" stopTime="0.00" timeLoss="5.28" rerouteNo="0" devices="tripinfo_213" vType="DEFAULT_VEHTYPE" speedFactor="0.91" vaporized=""/>
    <tripinfo id="326" depart="28.00" departLane="627_4way_326to4way_327_0" departPos="5.10" departSpeed="0.00" departDelay="0.55" arrival="45.00" arrivalLane="629_4way_327to4way_328_0" arrivalPos="85.60" arrivalSpeed="13.51" duration="17.00" routeLength="180.50" waitingTime="0.00" waitingCount="0" stopTime="0.00" timeLoss="3.62" rerouteNo="0" devices="tripinfo_326" vType="DEFAULT_VEHTYPE" speedFactor="1.00" vaporized=""/>
    <tripinfo id="335" depart="29.00" departLane="790_4way_408to4way_407_0" departPos="5.10" departSpeed="0.00" departDelay="0.79" arrival="58.00" arrivalLane="842_4way_432to4way_457_0" arrivalPos="85.60" arrivalSpeed="12.01" duration="29.00" routeLength="275.13" waitingTime="0.00" waitingCount="0" stopTime="0.00" timeLoss="5.90" rerouteNo="0" devices="tripinfo_335" vType="DEFAULT_VEHTYPE" speedFactor="0.90" vaporized=""/>
    <tripinfo id="443" depart="38.00" departLane="1005_4way_516to4way_517_0" departPos="5.10" departSpeed="0.00" departDelay="0.70" arrival="58.00" arrivalLane="961_4way_517to4way_492_0" arrivalPos="85.60" arrivalSpeed="11.99" duration="20.00" routeLength="175.13" waitingTime="0.00" waitingCount="0" stopTime="0.00" timeLoss="4.53" rerouteNo="0" devices="tripinfo_443" vType="DEFAULT_VEHTYPE" speedFactor="0.88" vaporized=""/>
    <tripinfo id="576" depart="49.00" departLane="302_4way_154to4way_153_0" departPos="5.10" departSpeed="0.00" departDelay="0.50" arrival="59.00" arrivalLane="302_4way_154to4way_153_0" arrivalPos="85.60" arrivalSpeed="13.70" duration="10.00" routeLength="80.50" waitingTime="0.00" waitingCount="0" stopTime="0.00" timeLoss="3.27" rerouteNo="0" devices="tripinfo_576" vType="DEFAULT_VEHTYPE" speedFactor="1.00" vaporized=""/>
    <tripinfo id="610" depart="52.00" departLane="626_4way_323to4way_348_0" departPos="5.10" departSpeed="0.00" departDelay="0.64" arrival="61.00" arrivalLane="626_4way_323to4way_348_0" arrivalPos="85.60" arrivalSpeed="12.49" duration="9.00" routeLength="80.50" waitingTime="0.00" waitingCount="0" stopTime="0.00" timeLoss="2.69" rerouteNo="0" devices="tripinfo_610" vType="DEFAULT_VEHTYPE" speedFactor="0.93" vaporized=""/>
    <tripinfo id="253" depart="22.00" departLane="41_3way_224to3way_199_0" departPos="5.10" departSpeed="0.00" departDelay="0.70" arrival="64.00" arrivalLane="381_4way_196to4way_195_0" arrivalPos="85.60" arrivalSpeed="13.58" duration="42.00" routeLength="475.13" waitingTime="0.00" waitingCount="0" stopTime="0.00" timeLoss="5.99" rerouteNo="0" devices="tripinfo_253" vType="DEFAULT_VEHTYPE" speedFactor="0.99" vaporized=""/>
    <tripinfo id="438" depart="37.00" departLane="740_4way_381to4way_406_0" departPos="5.10" departSpeed="0.00" departDelay="0.12" arrival="66.00" arrivalLane="790_4way_407to4way_408_0" arrivalPos="85.60" arrivalSpeed="12.56" duration="29.00" routeLength="275.13" waitingTime="0.00" waitingCount="0" stopTime="0.00" timeLoss="5.97" rerouteNo="0" devices="tripinfo_438" vType="DEFAULT_VEHTYPE" speedFactor="0.92" vaporized=""/>
    <tripinfo id="163" depart="14.00" departLane="860_4way_465to4way_440_0" departPos="5.10" departSpeed="0.00" departDelay="0.27" arrival="72.00" arrivalLane="560_4way_315to4way_290_0" arrivalPos="85.60" arrivalSpeed="11.25" duration="58.00" routeLength="680.50" waitingTime="0.00" waitingCount="0" stopTime="0.00" timeLoss="5.74" rerouteNo="0" devices="tripinfo_163" vType="DEFAULT_VEHTYPE" speedFactor="0.94" vaporized=""/>
    <tripinfo id="531" depart="45.00" departLane="176_3way_8to3way_7_0" departPos="5.10" departSpeed="0.00" departDelay="0.29" arrival="74.00" arrivalLane="89_3way_5to3way_4_0" arrivalPos="85.60" arrivalSpeed="14.23" duration="29.00" routeLength="380.50" waitingTime="0.00" waitingCount="0" stopTime="0.00" timeLoss="4.25" rerouteNo="0" devices="tripinfo_531" vType="DEFAULT_VEHTYPE" speedFactor="1.11" vaporized=""/>
    <tripinfo id="115" depart="10.00" departLane="881_4way_452to4way_477_0" departPos="5.10" departSpeed="0.00" departDelay="0.32" arrival="77.00" arrivalLane="975_4way_502to4way_503_0" arrivalPos="85.60" arrivalSpeed="12.47" duration="67.00" routeLength="275.13" waitingTime="37.00" waitingCount="1" stopTime="0.00" timeLoss="44.53" rerouteNo="0" devices="tripinfo_115" vType="DEFAULT_VEHTYPE" speedFactor="0.92" vaporized=""/>
    <tripinfo id="128" depart="11.00" departLane="900_4way_462to4way_461_0" departPos="5.10" departSpeed="0.00" departDelay="0.22" arrival="77.00" arrivalLane="996_4way_511to4way_536_0" arrivalPos="85.60" arrivalSpeed="12.94" duration="66.00" routeLength="375.13" waitingTime="27.00" waitingCount="1" stopTime="0.00" timeLoss="38.50" rerouteNo="0" devices="tripinfo_128" vType="DEFAULT_VEHTYPE" speedFactor="1.02" vaporized=""/>
    <tripinfo id="493" depart="42.00" departLane="617_4way_319to4way_344_0" departPos="5.10" departSpeed="0.00" departDelay="0.49" arrival="77.00" arrivalLane="716_4way_369to4way_370_0" arrivalPos="85.60" arrivalSpeed="12.12" duration="35.00" routeLength="275.13" waitingTime="6.00" waitingCount="1" stopTime="0.00" timeLoss="13.13" rerouteNo="0" devices="tripinfo_493" vType="DEFAULT_VEHTYPE" speedFactor="0.94" vaporized=""/>
    <tripinfo id="351" depart="30.00" departLane="163_3way_617to3way_618_0" departPos="5.10" departSpeed="0.00" departDelay="0.45" arrival="78.00" arrivalLane="165_3way_618to3way_619_0" arrivalPos="85.60" arrivalSpeed="11.48" duration="48.00" routeLength="180.50" waitingTime="24.00" waitingCount="1" stopTime="0.00" timeLoss="31.98" rerouteNo="0" devices="tripinfo_351" vType="DEFAULT_VEHTYPE" speedFactor="0.85" vaporized=""/>
    <tripinfo id="479" depart="43.00" departLane="876_4way_46to4way_45_0" departPos="5.10" departSpeed="0.00" departDelay="2.67" arrival="78.00" arrivalLane="877_4way_45to4way_70_0" arrivalPos="85.60" arrivalSpeed="13.76" duration="35.00" routeLength="175.13" waitingTime="13.00" waitingCount="1" stopTime="0.00" timeLoss="22.03" rerouteNo="0" devices="tripinfo_479" vType="DEFAULT_VEHTYPE" speedFactor="1.04" vaporized=""/>
    <tripinfo id="692" depart="59.00" departLane="650_4way_361to4way_336_0" departPos="5.10" departSpeed="0.00" departDelay="0.73" arrival="78.00" arrivalLane="647_4way_336to4way_335_0" arrivalPos="85.60" arrivalSpeed="14.45" duration="19.00" routeLength="175.13" waitingTime="0.00" waitingCount="0" stopTime="0.00" timeLoss="6.64" rerouteNo="0" devices="tripinfo_692" vType="DEFAULT_VEHTYPE" speedFactor="1.13" vaporized=""/>
    <tripinfo id="637" depart="54.00" departLane="286_4way_142to4way_167_0" departPos="5.10" departSpeed="0.00" departDelay="0.36" arrival="80.00" arrivalLane="330_4way_167to4way_168_0" arrivalPos="85.60" arrivalSpeed="11.99" duration="26.00" routeLength="175.13" waitingTime="2.00" waitingCount="1" stopTime="0.00" timeLoss="11.21" rerouteNo="0" devices="tripinfo_637" vType="DEFAULT_VEHTYPE" speedFactor="0.94" vaporized=""/>
    <tripinfo id="268" depart="23.00" departLane="860_4way_465to4way_440_0" departPos="5.10" departSpeed="0.00" departDelay="0.43" arrival="82.00" arrivalLane="702_4way_363to4way_362_0" arrivalPos="85.60" arrivalSpeed="15.68" duration="59.00" routeLength="675.13" waitingTime="5.00" waitingCount="1" stopTime="0.00" timeLoss="18.60" rerouteNo="0" devices="tripinfo_268" vType="DEFAULT_VEHTYPE" speedFactor="1.22" vaporized=""/>
    <tripinfo id="168" depart="15.00" departLane="1114_4way_82to4way_57_0" departPos="5.10" departSpeed="0.00" departDelay="0.85" arrival="83.00" arrivalLane="557_4way_30to4way_29_0" arrivalPos="85.60" arrivalSpeed="13.99" duration="68.00" routeLength="475.13" waitingTime="20.00" waitingCount="1" stopTime="0.00" timeLoss="35.60" rerouteNo="0" devices="tripinfo_168" vType="DEFAULT_VEHTYPE" speedFactor="1.10" vaporized=""/>
    <tripinfo id="334" depart="29.00" departLane="325_4way_164to4way_189_0" departPos="5.10" departSpeed="0.00" departDelay="0.88" arrival="83.00" arrivalLane="371_4way_190to4way_191_0" arrivalPos="85.60" arrivalSpeed="16.41" duration="54.00" routeLength="275.13" waitingTime="25.00" waitingCount="1" stopTime="0.00" timeLoss="35.92" rerouteNo="0" devices="tripinfo_334" vType="DEFAULT_VEHTYPE" speedFactor="1.19" vaporized=""/>
    <tripinfo id="726" depart="62.00" departLane="920_4way_471to4way_470_0" departPos="5.10" departSpeed="0.00" departDelay="0.87" arrival="83.00" arrivalLane="921_4way_470to4way_495_0" arrivalPos="85.60" arrivalSpeed="11.16" duration="21.00" routeLength="175.13" waitingTime="0.00" waitingCount="0" stopTime="0.00" timeLoss="4.84" rerouteNo="0" devices="tripinfo_726" vType="DEFAULT_VEHTYPE" speedFactor="0.85" vaporized=""/>
    <tripinfo id="212" depart="18.00" departLane="316_4way_160to4way_161_0" departPos="5.10" departSpeed="0.00" departDelay="0.15" arrival="84.00" arrivalLane="322_4way_163to4way_164_0" arrivalPos="85.60" arrivalSpeed="13.51" duration="66.00" routeLength="380.50" waitingTime="29.00" waitingCount="1" stopTime="0.00" timeLoss="38.47" rerouteNo="0" devices="tripinfo_212" vType="DEFAULT_VEHTYPE" speedFactor="1.00" vaporized=""/>
    <tripinfo id="452" depart="39.00" departLane="923_4way_496to4way_471_0" departPos="5.10" departSpeed="0.00" departDelay="0.94" arrival="86.00" arrivalLane="820_4way_421to4way_420_0" arrivalPos="85.60" arrivalSpeed="14.62" duration="47.00" routeLength="375.13" waitingTime="8.00" waitingCount="1" stopTime="0.00" timeLoss="20.77" rerouteNo="0" devices="tripinfo_452" vType="DEFAULT_VEHTYPE" speedFactor="1.09" vaporized=""/>
    <tripinfo id="370" depart="32.00" departLane="297_4way_148to4way_173_0" departPos="5.10" departSpeed="0.00" departDelay="0.85" arrival="87.00" arrivalLane="42_4way_198to3way_199_0" arrivalPos="85.60" arrivalSpeed="12.83" duration="55.00" routeLength="275.13" waitingTime="22.00" waitingCount="1" stopTime="0.00" timeLoss="33.43" rerouteNo="0" devices="tripinfo_370" vType="DEFAULT_VEHTYPE" speedFactor="0.96" vaporized=""/>
    <tripinfo id="388" depart="33.00" departLane="362_4way_210to4way_185_0" departPos="5.10" departSpeed="0.00" departDelay="0.33" arrival="87.00" arrivalLane="314_4way_160to4way_159_0" arrivalPos="85.60" arrivalSpeed="12.07" duration="54.00" routeLength="275.13" waitingTime="21.00" waitingCount="1" stopTime="0.00" timeLoss="32.15" rerouteNo="0" devices="tripinfo_388" vType="DEFAULT_VEHTYPE" speedFactor="0.95" vaporized=""/>
    <tripinfo id="381" depart="33.00" departLane="1091_4way_56to4way_57_0" departPos="5.10" departSpeed="0.00" departDelay="0.92" arrival="90.00" arrivalLane="658_4way_59to4way_34_0" arrivalPos="85.60" arrivalSpeed="17.39" duration="57.00" routeLength="375.13" waitingTime="22.00" waitingCount="1" stopTime="0.00" timeLoss="34.93" rerouteNo="0" devices="tripinfo_381" vType="DEFAULT_VEHTYPE" speedFactor="1.27" vaporized=""/>
    <tripinfo id="841" depart="71.00" departLane="45_3way_21to3way_20_0" departPos="5.10" departSpeed="0.00" departDelay="0.19" arrival="90.00" arrivalLane="46_3way_20to4way_45_0" arrivalPos="85.60" arrivalSpeed="13.82" duration="19.00" routeLength="175.13" waitingTime="0.00" waitingCount="0" stopTime="0.00" timeLoss="5.37" rerouteNo="0" devices="tripinfo_841" vType="DEFAULT_VEHTYPE" speedFactor="1.02" vaporized=""/>
    <tripinfo id="554" depart="47.00" departLane="987_4way_508to4way_509_0" departPos="5.10" departSpeed="0.00" departDelay="0.35" arrival="92.00" arrivalLane="895_4way_484to4way_459_0" arrivalPos="85.60" arrivalSpeed="12.81" duration="45.00" routeLength="275.13" waitingTime="11.00" waitingCount="1" stopTime="0.00" timeLoss="23.18" rerouteNo="0" devices="tripinfo_554" vType="DEFAULT_VEHTYPE" speedFactor="0.97" vaporized=""/>
    <tripinfo id="878" depart="76.00" departLane="1066_4way_547to4way_546_0" departPos="5.10" departSpeed="0.00" departDelay="2.07" arrival="92.00" arrivalLane="1064_4way_546to4way_545_0" arrivalPos="85.60" arrivalSpeed="15.03" duration="16.00" routeLength="180.50" waitingTime="0.00" waitingCount="0" stopTime="0.00" timeLoss="4.30" rerouteNo="0" devices="tripinfo_878" vType="DEFAULT_VEHTYPE" speedFactor="1.15" vaporized=""/>
    <tripinfo id="397" depart="34.00" departLane="296_4way_147to4way_172_0" departPos="5.10" departSpeed="0.00" departDelay="0.57" arrival="93.00" arrivalLane="475_4way_247to4way_248_0" arrivalPos="85.60" arrivalSpeed="13.69" duration="59.00" routeLength="475.13" waitingTime="13.00" waitingCount="1" stopTime="0.00" timeLoss="25.94" rerouteNo="0" devices="tripinfo_397" vType="DEFAULT_VEHTYPE" speedFactor="1.05" vaporized=""/>
    <tripinfo id="176" depart="15.00" departLane="848_4way_460to4way_435_0" departPos="5.10" departSpeed="0.00" departDelay="0.18" arrival="95.00" arrivalLane="743_4way_384to4way_383_0" arrivalPos="85.60" arrivalSpeed="12.34" duration="80.00" routeLength="475.13" waitingTime="31.00" waitingCount="1" stopTime="0.00" timeLoss="43.58" rerouteNo="0" devices="tripinfo_176" vType="DEFAULT_VEHTYPE" speedFactor="0.97" vaporized=""/>
    <tripinfo id="156" depart="14.00" departLane="157_3way_614to3way_615_0" departPos="5.10" departSpeed="0.00" departDelay="0.86" arrival="96.00" arrivalLane="167_3way_619to3way_620_0" arrivalPos="85.60" arrivalSpeed="12.60" duration="82.00" routeLength="580.50" waitingTime="25.00" waitingCount="1" stopTime="0.00" timeLoss="35.99" rerouteNo="0" devices="tripinfo_156" vType="DEFAULT_VEHTYPE" speedFactor="0.91" vaporized=""/>
    <tripinfo id="298" depart="26.00" departLane="843_4way_434to4way_433_0" departPos="5.10" departSpeed="0.00" departDelay="0.91" arrival="96.00" arrivalLane="840_4way_431to4way_456_0" arrivalPos="85.60" arrivalSpeed="11.72" duration="70.00" routeLength="375.13" waitingTime="29.00" waitingCount="1" stopTime="0.00" timeLoss="39.68" rerouteNo="0" devices="tripinfo_298" vType="DEFAULT_VEHTYPE" speedFactor="0.92" vaporized=""/>
    <tripinfo id="809" depart="69.00" departLane="126_3way_575to4way_576_0" departPos="5.10" departSpeed="0.00" departDelay="0.88" arrival="97.00" arrivalLane="1023_4way_551to4way_526_0" arrivalPos="85.60" arrivalSpeed="11.85" duration="28.00" routeLength="275.13" waitingTime="0.00" waitingCount="0" stopTime="0.00" timeLoss="5.81" rerouteNo="0" devices="tripinfo_809" vType="DEFAULT_VEHTYPE" speedFactor="0.93" vaporized=""/>
    <tripinfo id="972" depart="84.00" departLane="109_3way_6to3way_5_0" departPos="5.10" departSpeed="0.00" departDelay="2.16" arrival="100.00" arrivalLane="89_3way_5to3way_4_0" arrivalPos="85.60" arrivalSpeed="14.83" duration="16.00" routeLength="180.50" waitingTime="0.00" waitingCount="0" stopTime="0.00" timeLoss="4.01" rerouteNo="0" devices="tripinfo_972" vType="DEFAULT_VEHTYPE" speedFactor="1.12" vaporized=""/>
    <tripinfo id="303" depart="26.00" departLane="532_4way_278to4way_303_0" departPos="5.10" departSpeed="0.00" departDelay="0.49" arrival="101.00" arrivalLane="782_4way_403to4way_404_0" arrivalPos="85.60" arrivalSpeed="14.17" duration="75.00" routeLength="575.13" waitingTime="21.00" waitingCount="1" stopTime="0.00" timeLoss="33.94" rerouteNo="0" devices="tripinfo_303" vType="DEFAULT_VEHTYPE" speedFactor="1.02" vaporized=""/>
    <tripinfo id="761" depart="65.00" departLane="796_4way_42to4way_41_0" departPos="5.10" departSpeed="0.00" departDelay="0.92" arrival="102.00" arrivalLane="718_4way_38to4way_37_0" arrivalPos="85.60" arrivalSpeed="13.76" duration="37.00" routeLength="480.50" waitingTime="0.00" waitingCount="0" stopTime="0.00" timeLoss="4.37" rerouteNo="0" devices="tripinfo_761" vType="DEFAULT_VEHTYPE" speedFactor="1.08" vaporized=""/>
    <tripinfo id="888" depart="78.00" departLane="786_4way_405to4way_406_0" departPos="5.10" departSpeed="0.00" departDelay="3.23" arrival="103.00" arrivalLane="790_4way_407to4way_408_0" arrivalPos="85.60" arrivalSpeed="13.51" duration="25.00" routeLength="280.50" waitingTime="0.00" waitingCount="0" stopTime="0.00" timeLoss="3.59" rerouteNo="0" devices="tripinfo_888" vType="DEFAULT_VEHTYPE" speedFactor="0.99" vaporized=""/>
    <tripinfo id="490" depart="42.00" departLane="915_4way_468to4way_493_0" departPos="5.10" departSpeed="0.00" departDelay="0.74" arrival="104.00" arrivalLane="1064_4way_545to4way_546_0" arrivalPos="85.60" arrivalSpeed="11.81" duration="62.00" routeLength="575.13" waitingTime="3.00" waitingCount="1" stopTime="0.00" timeLoss="15.33" rerouteNo="0" devices="tripinfo_490" vType="DEFAULT_VEHTYPE" speedFactor="0.91" vaporized=""/>
    <tripinfo id="500" depart="43.00" departLane="177_3way_7to4way_32_0" departPos="5.10" departSpeed="0.00" departDelay="0.90" arrival="104.00" arrivalLane="718_4way_37to4way_38_0" arrivalPos="85.60" arrivalSpeed="12.48" duration="61.00" routeLength="675.13" waitingTime="0.00" waitingCount="0" stopTime="0.00" timeLoss="7.43" rerouteNo="0" devices="tripinfo_500" vType="DEFAULT_VEHTYPE" speedFactor="0.92" vaporized=""/>
    <tripinfo id="533" depart="45.00" departLane="1174_4way_73to4way_98_0" departPos="5.10" departSpeed="0.00" departDelay="0.12" arrival="108.00" arrivalLane="60_4way_248to3way_249_0" arrivalPos="85.60" arrivalSpeed="14.06" duration="63.00" routeLength="775.13" waitingTime="0.00" waitingCount="0" stopTime="0.00" timeLoss="11.28" rerouteNo="0" devices="tripinfo_533" vType="DEFAULT_VEHTYPE" speedFactor="1.09" vaporized=""/>
    <tripinfo id="937" depart="79.00" departLane="1184_4way_86to4way_85_0" departPos="5.10" departSpeed="0.00" departDelay="0.10" arrival="110.00" arrivalLane="208_4way_83to4way_108_0" arrivalPos="85.60" arrivalSpeed="16.28" duration="31.00" routeLength="375.13" waitingTime="0.00" waitingCount="0" stopTime="0.00" timeLoss="6.83" rerouteNo="0" devices="tripinfo_937" vType="DEFAULT_VEHTYPE" speedFactor="1.17" vaporized=""/>
    <tripinfo id="378" depart="32.00" departLane="3_3way_1to4way_26_0" departPos="5.10" departSpeed="0.00" departDelay="0.17" arrival="114.00" arrivalLane="596_4way_31to4way_32_0" arrivalPos="85.60" arrivalSpeed="13.47" duration="82.00" routeLength="675.13" waitingTime="23.00" waitingCount="1" stopTime="0.00" timeLoss="33.27" rerouteNo="0" devices="tripinfo_378" vType="DEFAULT_VEHTYPE" speedFactor="1.03" vaporized=""/>
    <tripinfo id="1258" depart="106.00" departLane="785_4way_429to4way_404_0" departPos="5.10" departSpeed="0.00" departDelay="0.08" arrival="116.00" arrivalLane="785_4way_429to4way_404_0" arrivalPos="85.60" arrivalSpeed="11.86" duration="10.00" routeLength="80.50" waitingTime="0.00" waitingCount="0" stopTime="0.00" timeLoss="3.05" rerouteNo="0" devices="tripinfo_1258" vType="DEFAULT_VEHTYPE" speedFactor="0.94" vaporized=""/>
    <tripinfo id="457" depart="39.00" departLane="366_4way_187to4way_212_0" departPos="5.10" departSpeed="0.00" departDelay="0.52" arrival="122.00" arrivalLane="424_4way_219to4way_220_0" arrivalPos="85.60" arrivalSpeed="14.71" duration="83.00" routeLength="875.13" waitingTime="15.00" waitingCount="1" stopTime="0.00" timeLoss="27.04" rerouteNo="0" devices="tripinfo_457" vType="DEFAULT_VEHTYPE" speedFactor="1.14" vaporized=""/>
    <tripinfo id="264" depart="23.00" departLane="1130_4way_582to4way_583_0" departPos="5.10" departSpeed="0.00" departDelay="0.77" arrival="123.00" arrivalLane="158_4way_589to3way_614_0" arrivalPos="85.60" arrivalSpeed="11.17" duration="100.00" routeLength="780.30" waitingTime="23.00" waitingCount="1" stopTime="0.00" timeLoss="33.74" rerouteNo="0" devices="tripinfo_264" vType="DEFAULT_VEHTYPE" speedFactor="0.86" vaporized=""/>
    <tripinfo id="583" depart="50.00" departLane="893_4way_458to4way_483_0" departPos="5.10" departSpeed="0.00" departDelay="0.91" arrival="123.00" arrivalLane="1095_4way_561to4way_562_0" arrivalPos="85.60" arrivalSpeed="13.56" duration="73.00" routeLength="775.13" waitingTime="6.00" waitingCount="1" stopTime="0.00" timeLoss="17.28" rerouteNo="0" devices="tripinfo_583" vType="DEFAULT_VEHTYPE" speedFactor="1.02" vaporized=""/>
    <tripinfo id="1340" depart="113.00" departLane="934_4way_504to4way_479_0" departPos="5.10" departSpeed="0.00" departDelay="0.17" arrival="123.00" arrivalLane="934_4way_504to4way_479_0" arrivalPos="85.60" arrivalSpeed="12.65" duration="10.00" routeLength="80.50" waitingTime="0.00" waitingCount="0" stopTime="0.00" timeLoss="2.97" rerouteNo="0" devices="tripinfo_1340" vType="DEFAULT_VEHTYPE" speedFactor="0.95" vaporized=""/>
    <tripinfo id="199" depart="17.00" departLane="44_4way_27to3way_2_0" departPos="5.10" departSpeed="0.00" departDelay="0.24" arrival="127.00" arrivalLane="4_3way_10to3way_11_0" arrivalPos="85.60" arrivalSpeed="16.49" duration="110.00" routeLength="980.29" waitingTime="37.00" waitingCount="1" stopTime="0.00" timeLoss="49.67" rerouteNo="0" devices="tripinfo_199" vType="DEFAULT_VEHTYPE" speedFactor="1.20" vaporized=""/>
    <tripinfo id="1377" depart="117.00" departLane="153_3way_612to3way_613_0" departPos="5.10" departSpeed="0.00" departDelay="1.06" arrival="127.00" arrivalLane="153_3way_612to3way_613_0" arrivalPos="85.60" arrivalSpeed="13.95" duration="10.00" routeLength="80.50" waitingTime="0.00" waitingCount="0" stopTime="0.00" timeLoss="4.19" rerouteNo="0" devices="tripinfo_1377" vType="DEFAULT_VEHTYPE" speedFactor="1.09" vaporized=""/>
    <tripinfo id="1186" depart="100.00" departLane="596_4way_32to4way_31_0" departPos="5.10" departSpeed="0.00" departDelay="0.14" arrival="128.00" arrivalLane="577_4way_30to4way_55_0" arrivalPos="85.60" arrivalSpeed="13.08" duration="28.00" routeLength="275.13" waitingTime="0.00" waitingCount="0" stopTime="0.00" timeLoss="6.17" rerouteNo="0" devices="tripinfo_1186" vType="DEFAULT_VEHTYPE" speedFactor="0.96" vaporized=""/>
    <tripinfo id="27" depart="3.00" departLane="434_4way_226to4way_251_0" departPos="5.10" departSpeed="0.00" departDelay="0.73" arrival="130.00" arrivalLane="727_4way_376to4way_377_0" arrivalPos="85.60" arrivalSpeed="5.30" duration="127.00" routeLength="675.13" waitingTime="59.00" waitingCount="2" stopTime="0.00" timeLoss="78.65" rerouteNo="0" devices="tripinfo_27" vType="DEFAULT_VEHTYPE" speedFactor="1.03" vaporized=""/>
    <tripinfo id="1024" depart="87.00" departLane="54_3way_224to4way_223_0" departPos="5.10" departSpeed="0.00" departDelay="0.78" arrival="130.00" arrivalLane="54_3way_224to4way_223_0" arrivalPos="85.60" arrivalSpeed="6.05" duration="43.00" routeLength="80.50" waitingTime="28.00" waitingCount="1" stopTime="0.00" timeLoss="36.29" rerouteNo="0" devices="tripinfo_1024" vType="DEFAULT_VEHTYPE" speedFactor="0.89" vaporized=""/>
    <tripinfo id="181" depart="16.00" departLane="404_4way_209to4way_210_0" departPos="5.10" departSpeed="0.00" departDelay="0.76" arrival="133.00" arrivalLane="798_4way_410to4way_411_0" arrivalPos="85.60" arrivalSpeed="8.60" duration="117.00" routeLength="974.93" waitingTime="20.00" waitingCount="2" stopTime="0.00" timeLoss="41.87" rerouteNo="0" devices="tripinfo_181" vType="DEFAULT_VEHTYPE" speedFactor="0.96" vaporized=""/>
    <tripinfo id="921" depart="78.00" departLane="530_4way_277to4way_302_0" departPos="5.10" departSpeed="0.00" departDelay="0.45" arrival="133.00" arrivalLane="827_4way_427to4way_426_0" arrivalPos="85.60" arrivalSpeed="15.52" duration="55.00" routeLength="680.30" waitingTime="0.00" waitingCount="0" stopTime="0.00" timeLoss="11.57" rerouteNo="0" devices="tripinfo_921" vType="DEFAULT_VEHTYPE" speedFactor="1.15" vaporized=""/>
    <tripinfo id="207" depart="18.00" departLane="975_4way_503to4way_502_0" departPos="5.10" departSpeed="0.00" departDelay="0.57" arrival="136.00" arrivalLane="1076_4way_552to4way_577_0" arrivalPos="85.60" arrivalSpeed="17.15" duration="118.00" routeLength="375.13" waitingTime="75.00" waitingCount="2" stopTime="0.00" timeLoss="95.21" rerouteNo="0" devices="tripinfo_207" vType="DEFAULT_VEHTYPE" speedFactor="1.24" vaporized=""/>
    <tripinfo id="417" depart="36.00" departLane="1089_4way_559to4way_560_0" departPos="5.10" departSpeed="0.00" departDelay="0.89" arrival="136.00" arrivalLane="1107_4way_567to4way_568_0" arrivalPos="85.60" arrivalSpeed="12.90" duration="100.00" routeLength="880.50" waitingTime="20.00" waitingCount="1" stopTime="0.00" timeLoss="36.08" rerouteNo="0" devices="tripinfo_417" vType="DEFAULT_VEHTYPE" speedFactor="1.00" vaporized=""/>
    <tripinfo id="960" depart="81.00" departLane="109_3way_6to3way_5_0" departPos="5.10" departSpeed="0.00" departDelay="0.17" arrival="136.00" arrivalLane="44_3way_2to4way_27_0" arrivalPos="85.60" arrivalSpeed="13.90" duration="55.00" routeLength="475.13" waitingTime="10.00" waitingCount="1" stopTime="0.00" timeLoss="20.44" rerouteNo="0" devices="tripinfo_960" vType="DEFAULT_VEHTYPE" speedFactor="1.01" vaporized=""/>
    <tripinfo id="1170" depart="99.00" departLane="953_4way_488to4way_513_0" departPos="5.10" departSpeed="0.00" departDelay="0.49" arrival="136.00" arrivalLane="1000_4way_513to4way_538_0" arrivalPos="85.60" arrivalSpeed="14.73" duration="37.00" routeLength="180.50" waitingTime="16.00" waitingCount="1" stopTime="0.00" timeLoss="25.33" rerouteNo="0" devices="tripinfo_1170" vType="DEFAULT_VEHTYPE" speedFactor="1.14" vaporized=""/>
    <tripinfo id="16" depart="2.00" departLane="408_4way_212to4way_211_0" departPos="5.10" departSpeed="0.00" departDelay="0.65" arrival="137.00" arrivalLane="404_4way_210to4way_209_0" arrivalPos="85.60" arrivalSpeed="12.15" duration="135.00" routeLength="280.50" waitingTime="97.00" waitingCount="2" stopTime="0.00" timeLoss="112.51" rerouteNo="0" devices="tripinfo_16" vType="DEFAULT_VEHTYPE" speedFactor="0.90" vaporized=""/>
    <tripinfo id="68" depart="6.00" departLane="707_4way_389to4way_364_0" departPos="5.10" departSpeed="0.00" departDelay="0.27" arrival="137.00" arrivalLane="602_4way_313to4way_312_0" arrivalPos="85.60" arrivalSpeed="14.29" duration="131.00" routeLength="475.13" waitingTime="79.00" waitingCount="2" stopTime="0.00" timeLoss="98.34" rerouteNo="0" devices="tripinfo_68" vType="DEFAULT_VEHTYPE" speedFactor="1.09" vaporized=""/>
    <tripinfo id="178" depart="15.00" departLane="74_3way_300to4way_301_0" departPos="5.10" departSpeed="0.00" departDelay="0.01" arrival="137.00" arrivalLane="582_4way_303to4way_304_0" arrivalPos="85.60" arrivalSpeed="14.50" duration="122.00" routeLength="380.50" waitingTime="86.00" waitingCount="1" stopTime="0.00" timeLoss="96.02" rerouteNo="0" devices="tripinfo_178" vType="DEFAULT_VEHTYPE" speedFactor="1.07" vaporized=""/>
    <tripinfo id="222" depart="19.00" departLane="444_4way_256to4way_231_0" departPos="5.10" departSpeed="0.00" departDelay="0.31" arrival="137.00" arrivalLane="347_4way_179to4way_178_0" arrivalPos="85.60" arrivalSpeed="14.43" duration="118.00" routeLength="575.13" waitingTime="61.00" waitingCount="2" stopTime="0.00" timeLoss="78.45" rerouteNo="0" devices="tripinfo_222" vType="DEFAULT_VEHTYPE" speedFactor="1.10" vaporized=""/>
    <tripinfo id="325" depart="28.00" departLane="752_4way_412to4way_387_0" departPos="5.10" departSpeed="0.00" departDelay="0.63" arrival="137.00" arrivalLane="547_4way_286to4way_285_0" arrivalPos="85.60" arrivalSpeed="12.76" duration="109.00" routeLength="675.13" waitingTime="39.00" waitingCount="2" stopTime="0.00" timeLoss="59.86" rerouteNo="0" devices="tripinfo_325" vType="DEFAULT_VEHTYPE" speedFactor="1.01" vaporized=""/>
    <tripinfo id="454" depart="39.00" departLane="118_3way_525to4way_526_0" departPos="5.10" departSpeed="0.00" departDelay="0.77" arrival="137.00" arrivalLane="828_4way_451to4way_426_0" arrivalPos="85.60" arrivalSpeed="12.93" duration="98.00" routeLength="475.13" waitingTime="46.00" waitingCount="2" stopTime="0.00" timeLoss="63.27" rerouteNo="0" devices="tripinfo_454" vType="DEFAULT_VEHTYPE" speedFactor="1.01" vaporized=""/>