<?xml version="1.0" encoding="UTF-8"?>

<!-- generated on 2023-07-27 14:17:01 by Eclipse SUMO sumo Version 1.12.0
<configuration xmlns:xsi="http://www.w3.org/2001/XMLSchema-instance" xsi:noNamespaceSchemaLocation="http://sumo.dlr.de/xsd/sumoConfiguration.xsd">

    <input>
        <net-file value="../../data_generation/sq.net.xml"/>
        <route-files value="../../data_generation/sq.rou.xml"/>
    </input>

    <output>
        <tripinfo-output value="tripinfo.xml"/>
        <statistic-output value="statistic.xml"/>
    </output>

    <time>
        <begin value="0"/>
        <end value="3600"/>
    </time>

    <processing>
        <time-to-teleport value="-1"/>
    </processing>

    <traci_server>
        <remote-port value="58061"/>
    </traci_server>

    <random_number>
        <seed value="1395"/>
    </random_number>

    <gui_only>
        <gui-settings-file value="../../data_generation/view_HY_0402.xml"/>
    </gui_only>

</configuration>
-->

<tripinfos xmlns:xsi="http://www.w3.org/2001/XMLSchema-instance" xsi:noNamespaceSchemaLocation="http://sumo.dlr.de/xsd/tripinfo_file.xsd">
    <tripinfo id="15" depart="6.00" departLane="80_4way_9to4way_8_0" departPos="5.10" departSpeed="0.00" departDelay="0.64" arrival="15.00" arrivalLane="80_4way_9to4way_8_0" arrivalPos="85.60" arrivalSpeed="14.22" duration="9.00" routeLength="80.50" waitingTime="0.00" waitingCount="0" stopTime="0.00" timeLoss="3.21" rerouteNo="0" devices="tripinfo_15" vType="DEFAULT_VEHTYPE" speedFactor="1.05" vaporized=""/>
    <tripinfo id="12" depart="5.00" departLane="17_4way_26to3way_27_0" departPos="5.10" departSpeed="0.00" departDelay="0.71" arrival="23.00" arrivalLane="12_3way_27to3way_20_0" arrivalPos="85.60" arrivalSpeed="14.85" duration="18.00" routeLength="175.13" waitingTime="0.00" waitingCount="0" stopTime="0.00" timeLoss="5.75" rerouteNo="0" devices="tripinfo_12" vType="DEFAULT_VEHTYPE" speedFactor="1.16" vaporized=""/>
    <tripinfo id="14" depart="5.00" departLane="35_4way_38to3way_45_0" departPos="5.10" departSpeed="0.00" departDelay="0.00" arrival="24.00" arrivalLane="34_3way_45to3way_46_0" arrivalPos="85.60" arrivalSpeed="12.68" duration="19.00" routeLength="175.13" waitingTime="0.00" waitingCount="0" stopTime="0.00" timeLoss="4.69" rerouteNo="0" devices="tripinfo_14" vType="DEFAULT_VEHTYPE" speedFactor="0.95" vaporized=""/>
    <tripinfo id="19" depart="7.00" departLane="21_3way_3to4way_10_0" departPos="5.10" departSpeed="0.00" departDelay="0.21" arrival="25.00" arrivalLane="42_4way_10to4way_17_0" arrivalPos="85.60" arrivalSpeed="11.96" duration="18.00" routeLength="180.50" waitingTime="0.00" waitingCount="0" stopTime="0.00" timeLoss="3.03" rerouteNo="0" devices="tripinfo_19" vType="DEFAULT_VEHTYPE" speedFactor="0.89" vaporized=""/>
    <tripinfo id="38" depart="14.00" departLane="42_4way_17to4way_10_0" departPos="5.10" departSpeed="0.00" departDelay="0.43" arrival="31.00" arrivalLane="21_4way_10to3way_3_0" arrivalPos="85.60" arrivalSpeed="13.22" duration="17.00" routeLength="180.50" waitingTime="0.00" waitingCount="0" stopTime="0.00" timeLoss="3.31" rerouteNo="0" devices="tripinfo_38" vType="DEFAULT_VEHTYPE" speedFactor="1.00" vaporized=""/>
    <tripinfo id="64" depart="23.00" departLane="52_4way_16to4way_9_0" departPos="5.10" departSpeed="0.00" departDelay="0.15" arrival="33.00" arrivalLane="52_4way_16to4way_9_0" arrivalPos="85.60" arrivalSpeed="12.27" duration="10.00" routeLength="80.50" waitingTime="0.00" waitingCount="0" stopTime="0.00" timeLoss="3.66" rerouteNo="0" devices="tripinfo_64" vType="DEFAULT_VEHTYPE" speedFactor="0.96" vaporized=""/>
    <tripinfo id="61" depart="25.00" departLane="33_3way_44to4way_37_0" departPos="5.10" departSpeed="0.00" departDelay="3.22" arrival="34.00" arrivalLane="33_3way_44to4way_37_0" arrivalPos="85.60" arrivalSpeed="12.92" duration="9.00" routeLength="80.50" waitingTime="0.00" waitingCount="0" stopTime="0.00" timeLoss="3.12" rerouteNo="0" devices="tripinfo_61" vType="DEFAULT_VEHTYPE" speedFactor="1.01" vaporized=""/>
    <tripinfo id="21" depart="8.00" departLane="18_3way_28to3way_35_0" departPos="5.10" departSpeed="0.00" departDelay="0.50" arrival="36.00" arrivalLane="24_3way_35to3way_43_0" arrivalPos="182.40" arrivalSpeed="11.00" duration="28.00" routeLength="277.30" waitingTime="0.00" waitingCount="0" stopTime="0.00" timeLoss="3.53" rerouteNo="0" devices="tripinfo_21" vType="DEFAULT_VEHTYPE" speedFactor="0.82" vaporized=""/>
    <tripinfo id="69" depart="25.00" departLane="53_4way_17to4way_18_0" departPos="5.10" departSpeed="0.00" departDelay="0.36" arrival="36.00" arrivalLane="53_4way_17to4way_18_0" arrivalPos="85.60" arrivalSpeed="10.77" duration="11.00" routeLength="80.50" waitingTime="0.00" waitingCount="0" stopTime="0.00" timeLoss="3.05" rerouteNo="0" devices="tripinfo_69" vType="DEFAULT_VEHTYPE" speedFactor="0.82" vaporized=""/>
    <tripinfo id="79" depart="30.00" departLane="73_4way_32to4way_33_0" departPos="5.10" departSpeed="0.00" departDelay="1.79" arrival="40.00" arrivalLane="73_4way_32to4way_33_0" arrivalPos="85.60" arrivalSpeed="11.95" duration="10.00" routeLength="80.50" waitingTime="0.00" waitingCount="0" stopTime="0.00" timeLoss="3.20" rerouteNo="0" devices="tripinfo_79" vType="DEFAULT_VEHTYPE" speedFactor="0.90" vaporized=""/>
    <tripinfo id="95" depart="34.00" departLane="36_3way_46to3way_47_0" departPos="5.10" departSpeed="0.00" departDelay="0.08" arrival="44.00" arrivalLane="36_3way_46to3way_47_0" arrivalPos="85.60" arrivalSpeed="11.13" duration="10.00" routeLength="80.50" waitingTime="0.00" waitingCount="0" stopTime="0.00" timeLoss="2.69" rerouteNo="0" devices="tripinfo_95" vType="DEFAULT_VEHTYPE" speedFactor="0.88" vaporized=""/>
    <tripinfo id="70" depart="25.00" departLane="46_4way_19to4way_12_0" departPos="5.10" departSpeed="0.00" departDelay="0.00" arrival="46.00" arrivalLane="39_4way_12to3way_5_0" arrivalPos="85.60" arrivalSpeed="10.04" duration="21.00" routeLength="180.50" waitingTime="0.00" waitingCount="0" stopTime="0.00" timeLoss="3.19" rerouteNo="0" devices="tripinfo_70" vType="DEFAULT_VEHTYPE" speedFactor="0.75" vaporized=""/>
    <tripinfo id="102" depart="37.00" departLane="29_3way_41to4way_40_0" departPos="5.10" departSpeed="0.00" departDelay="0.58" arrival="46.00" arrivalLane="29_3way_41to4way_40_0" arrivalPos="85.60" arrivalSpeed="13.57" duration="9.00" routeLength="80.50" waitingTime="0.00" waitingCount="0" stopTime="0.00" timeLoss="3.36" rerouteNo="0" devices="tripinfo_102" vType="DEFAULT_VEHTYPE" speedFactor="1.05" vaporized=""/>
    <tripinfo id="2" depart="1.00" departLane="70_4way_37to4way_30_0" departPos="5.10" departSpeed="0.00" departDelay="0.29" arrival="50.00" arrivalLane="8_3way_14to3way_7_0" arrivalPos="85.60" arrivalSpeed="13.53" duration="49.00" routeLength="574.92" waitingTime="0.00" waitingCount="0" stopTime="0.00" timeLoss="7.96" rerouteNo="0" devices="tripinfo_2" vType="DEFAULT_VEHTYPE" speedFactor="1.04" vaporized=""/>
    <tripinfo id="100" depart="36.00" departLane="80_4way_8to4way_9_0" departPos="5.10" departSpeed="0.00" departDelay="0.29" arrival="51.00" arrivalLane="43_4way_9to4way_10_0" arrivalPos="85.60" arrivalSpeed="15.40" duration="15.00" routeLength="180.50" waitingTime="0.00" waitingCount="0" stopTime="0.00" timeLoss="3.95" rerouteNo="0" devices="tripinfo_100" vType="DEFAULT_VEHTYPE" speedFactor="1.20" vaporized=""/>
    <tripinfo id="123" depart="44.00" departLane="72_4way_31to4way_38_0" departPos="5.10" departSpeed="0.00" departDelay="0.08" arrival="53.00" arrivalLane="72_4way_31to4way_38_0" arrivalPos="85.60" arrivalSpeed="14.00" duration="9.00" routeLength="80.50" waitingTime="0.00" waitingCount="0" stopTime="0.00" timeLoss="3.36" rerouteNo="0" devices="tripinfo_123" vType="DEFAULT_VEHTYPE" speedFactor="1.06" vaporized=""/>
    <tripinfo id="56" depart="20.00" departLane="54_4way_17to4way_24_0" departPos="5.10" departSpeed="0.00" departDelay="0.00" arrival="54.00" arrivalLane="78_4way_38to4way_39_0" arrivalPos="85.60" arrivalSpeed="13.81" duration="34.00" routeLength="375.13" waitingTime="0.00" waitingCount="0" stopTime="0.00" timeLoss="6.76" rerouteNo="0" devices="tripinfo_56" vType="DEFAULT_VEHTYPE" speedFactor="1.02" vaporized=""/>
    <tripinfo id="62" depart="23.00" departLane="8_3way_7to3way_14_0" departPos="5.10" departSpeed="0.00" departDelay="0.86" arrival="56.00" arrivalLane="58_4way_22to4way_23_0" arrivalPos="85.60" arrivalSpeed="14.41" duration="33.00" routeLength="375.13" waitingTime="0.00" waitingCount="0" stopTime="0.00" timeLoss="6.70" rerouteNo="0" devices="tripinfo_62" vType="DEFAULT_VEHTYPE" speedFactor="1.05" vaporized=""/>
    <tripinfo id="47" depart="17.00" departLane="35_3way_45to4way_38_0" departPos="5.10" departSpeed="0.00" departDelay="0.22" arrival="61.00" arrivalLane="42_4way_17to4way_10_0" arrivalPos="85.60" arrivalSpeed="11.69" duration="44.00" routeLength="480.50" waitingTime="0.00" waitingCount="0" stopTime="0.00" timeLoss="4.70" rerouteNo="0" devices="tripinfo_47" vType="DEFAULT_VEHTYPE" speedFactor="0.90" vaporized=""/>
    <tripinfo id="152" depart="55.00" departLane="26_3way_5to3way_4_0" departPos="5.10" departSpeed="0.00" departDelay="0.72" arrival="65.00" arrivalLane="26_3way_5to3way_4_0" arrivalPos="85.60" arrivalSpeed="12.11" duration="10.00" routeLength="80.50" waitingTime="0.00" waitingCount="0" stopTime="0.00" timeLoss="2.90" rerouteNo="0" devices="tripinfo_152" vType="DEFAULT_VEHTYPE" speedFactor="0.89" vaporized=""/>
    <tripinfo id="159" depart="57.00" departLane="42_4way_17to4way_10_0" departPos="5.10" departSpeed="0.00" departDelay="0.22" arrival="66.00" arrivalLane="42_4way_17to4way_10_0" arrivalPos="85.60" arrivalSpeed="12.58" duration="9.00" routeLength="80.50" waitingTime="0.00" waitingCount="0" stopTime="0.00" timeLoss="3.15" rerouteNo="0" devices="tripinfo_159" vType="DEFAULT_VEHTYPE" speedFactor="0.99" vaporized=""/>
    <tripinfo id="112" depart="40.00" departLane="29_3way_41to4way_40_0" departPos="5.10" departSpeed="0.00" departDelay="0.00" arrival="68.00" arrivalLane="37_4way_39to3way_46_0" arrivalPos="85.60" arrivalSpeed="12.70" duration="28.00" routeLength="275.13" waitingTime="0.00" waitingCount="0" stopTime="0.00" timeLoss="6.47" rerouteNo="0" devices="tripinfo_112" vType="DEFAULT_VEHTYPE" speedFactor="0.95" vaporized=""/>
    <tripinfo id="17" depart="7.00" departLane="42_4way_10to4way_17_0" departPos="5.10" departSpeed="0.00" departDelay="0.93" arrival="70.00" arrivalLane="64_4way_25to4way_26_0" arrivalPos="85.60" arrivalSpeed="5.90" duration="63.00" routeLength="375.13" waitingTime="27.00" waitingCount="1" stopTime="0.00" timeLoss="36.30" rerouteNo="0" devices="tripinfo_17" vType="DEFAULT_VEHTYPE" speedFactor="1.04" vaporized=""/>
    <tripinfo id="50" depart="21.00" departLane="52_4way_9to4way_16_0" departPos="5.10" departSpeed="0.00" departDelay="3.14" arrival="70.00" arrivalLane="52_4way_9to4way_16_0" arrivalPos="85.60" arrivalSpeed="6.12" duration="49.00" routeLength="80.50" waitingTime="34.00" waitingCount="1" stopTime="0.00" timeLoss="43.01" rerouteNo="0" devices="tripinfo_50" vType="DEFAULT_VEHTYPE" speedFactor="1.01" vaporized=""/>
    <tripinfo id="132" depart="48.00" departLane="79_4way_39to4way_40_0" departPos="5.10" departSpeed="0.00" departDelay="0.86" arrival="70.00" arrivalLane="75_4way_40to4way_33_0" arrivalPos="85.60" arrivalSpeed="6.36" duration="22.00" routeLength="175.13" waitingTime="0.00" waitingCount="0" stopTime="0.00" timeLoss="6.67" rerouteNo="0" devices="tripinfo_132" vType="DEFAULT_VEHTYPE" speedFactor="0.86" vaporized=""/>
    <tripinfo id="57" depart="21.00" departLane="58_4way_22to4way_23_0" departPos="5.10" departSpeed="0.00" departDelay="0.64" arrival="71.00" arrivalLane="60_4way_23to4way_24_0" arrivalPos="85.60" arrivalSpeed="5.69" duration="50.00" routeLength="180.50" waitingTime="26.00" waitingCount="1" stopTime="0.00" timeLoss="36.23" rerouteNo="0" devices="tripinfo_57" vType="DEFAULT_VEHTYPE" speedFactor="0.97" vaporized=""/>
    <tripinfo id="111" depart="40.00" departLane="62_4way_24to4way_25_0" departPos="5.10" departSpeed="0.00" departDelay="0.36" arrival="73.00" arrivalLane="64_4way_25to4way_26_0" arrivalPos="85.60" arrivalSpeed="8.54" duration="33.00" routeLength="180.50" waitingTime="8.00" waitingCount="1" stopTime="0.00" timeLoss="16.99" rerouteNo="0" devices="tripinfo_111" vType="DEFAULT_VEHTYPE" speedFactor="0.84" vaporized=""/>
    <tripinfo id="18" depart="7.00" departLane="8_3way_7to3way_14_0" departPos="5.10" departSpeed="0.00" departDelay="0.57" arrival="75.00" arrivalLane="14_3way_21to3way_28_0" arrivalPos="85.60" arrivalSpeed="8.69" duration="68.00" routeLength="280.50" waitingTime="35.00" waitingCount="1" stopTime="0.00" timeLoss="46.65" rerouteNo="0" devices="tripinfo_18" vType="DEFAULT_VEHTYPE" speedFactor="0.96" vaporized=""/>
    <tripinfo id="99" depart="36.00" departLane="20_3way_4to3way_3_0" departPos="5.10" departSpeed="0.00" departDelay="0.65" arrival="75.00" arrivalLane="10_3way_3to3way_2_0" arrivalPos="85.60" arrivalSpeed="9.55" duration="39.00" routeLength="180.50" waitingTime="14.00" waitingCount="1" stopTime="0.00" timeLoss="25.27" rerouteNo="0" devices="tripinfo_99" vType="DEFAULT_VEHTYPE" speedFactor="0.97" vaporized=""/>
    <tripinfo id="168" depart="60.00" departLane="27_3way_4to4way_11_0" departPos="5.10" departSpeed="0.00" departDelay="0.01" arrival="75.00" arrivalLane="27_3way_4to4way_11_0" arrivalPos="85.60" arrivalSpeed="9.42" duration="15.00" routeLength="80.50" waitingTime="0.00" waitingCount="0" stopTime="0.00" timeLoss="9.50" rerouteNo="0" devices="tripinfo_168" vType="DEFAULT_VEHTYPE" speedFactor="1.10" vaporized=""/>
    <tripinfo id="45" depart="17.00" departLane="3_3way_1to4way_8_0" departPos="5.10" departSpeed="0.00" departDelay="0.93" arrival="76.00" arrivalLane="47_4way_15to4way_16_0" arrivalPos="85.60" arrivalSpeed="13.58" duration="59.00" routeLength="275.13" waitingTime="31.00" waitingCount="1" stopTime="0.00" timeLoss="38.56" rerouteNo="0" devices="tripinfo_45" vType="DEFAULT_VEHTYPE" speedFactor="1.00" vaporized=""/>
    <tripinfo id="24" depart="9.00" departLane="16_3way_27to3way_34_0" departPos="5.10" departSpeed="0.00" departDelay="0.43" arrival="77.00" arrivalLane="22_3way_34to3way_41_0" arrivalPos="85.60" arrivalSpeed="13.06" duration="68.00" routeLength="180.50" waitingTime="46.00" waitingCount="1" stopTime="0.00" timeLoss="54.44" rerouteNo="0" devices="tripinfo_24" vType="DEFAULT_VEHTYPE" speedFactor="0.97" vaporized=""/>
    <tripinfo id="30" depart="11.00" departLane="26_3way_5to3way_4_0" departPos="5.10" departSpeed="0.00" departDelay="0.29" arrival="77.00" arrivalLane="45_4way_11to4way_18_0" arrivalPos="85.60" arrivalSpeed="13.69" duration="66.00" routeLength="275.13" waitingTime="35.00" waitingCount="1" stopTime="0.00" timeLoss="46.23" rerouteNo="0" devices="tripinfo_30" vType="DEFAULT_VEHTYPE" speedFactor="1.05" vaporized=""/>
    <tripinfo id="106" depart="38.00" departLane="56_4way_25to4way_18_0" departPos="5.10" departSpeed="0.00" departDelay="0.15" arrival="77.00" arrivalLane="50_4way_17to4way_16_0" arrivalPos="85.60" arrivalSpeed="14.91" duration="39.00" routeLength="275.13" waitingTime="8.00" waitingCount="1" stopTime="0.00" timeLoss="20.86" rerouteNo="0" devices="tripinfo_106" vType="DEFAULT_VEHTYPE" speedFactor="1.16" vaporized=""/>
    <tripinfo id="107" depart="39.00" departLane="74_4way_39to4way_32_0" departPos="5.10" departSpeed="0.00" departDelay="0.79" arrival="77.00" arrivalLane="69_4way_31to4way_30_0" arrivalPos="85.60" arrivalSpeed="15.16" duration="38.00" routeLength="275.13" waitingTime="7.00" waitingCount="1" stopTime="0.00" timeLoss="18.16" rerouteNo="0" devices="tripinfo_107" vType="DEFAULT_VEHTYPE" speedFactor="1.10" vaporized=""/>
    <tripinfo id="48" depart="18.00" departLane="73_4way_33to4way_32_0" departPos="5.10" departSpeed="0.00" departDelay="0.86" arrival="78.00" arrivalLane="71_4way_32to4way_31_0" arrivalPos="85.60" arrivalSpeed="11.10" duration="60.00" routeLength="180.50" waitingTime="35.00" waitingCount="1" stopTime="0.00" timeLoss="43.58" rerouteNo="0" devices="tripinfo_48" vType="DEFAULT_VEHTYPE" speedFactor="0.83" vaporized=""/>
    <tripinfo id="135" depart="49.00" departLane="45_4way_11to4way_18_0" departPos="5.10" departSpeed="0.00" departDelay="0.79" arrival="79.00" arrivalLane="64_4way_25to4way_26_0" arrivalPos="85.60" arrivalSpeed="13.84" duration="30.00" routeLength="275.13" waitingTime="0.00" waitingCount="0" stopTime="0.00" timeLoss="10.55" rerouteNo="0" devices="tripinfo_135" vType="DEFAULT_VEHTYPE" speedFactor="1.09" vaporized=""/>
    <tripinfo id="194" depart="70.00" departLane="18_3way_28to3way_35_0" departPos="5.10" departSpeed="0.00" departDelay="0.72" arrival="79.00" arrivalLane="18_3way_28to3way_35_0" arrivalPos="85.60" arrivalSpeed="14.55" duration="9.00" routeLength="80.50" waitingTime="0.00" waitingCount="0" stopTime="0.00" timeLoss="3.27" rerouteNo="0" devices="tripinfo_194" vType="DEFAULT_VEHTYPE" speedFactor="1.10" vaporized=""/>
    <tripinfo id="13" depart="5.00" departLane="7_3way_14to3way_21_0" departPos="5.10" departSpeed="0.00" departDelay="0.36" arrival="80.00" arrivalLane="19_3way_28to4way_29_0" arrivalPos="85.60" arrivalSpeed="12.40" duration="75.00" routeLength="275.13" waitingTime="44.00" waitingCount="1" stopTime="0.00" timeLoss="53.39" rerouteNo="0" devices="tripinfo_13" vType="DEFAULT_VEHTYPE" speedFactor="0.98" vaporized=""/>
    <tripinfo id="93" depart="34.00" departLane="66_4way_26to4way_33_0" departPos="5.10" departSpeed="0.00" departDelay="0.79" arrival="80.00" arrivalLane="23_4way_33to3way_34_0" arrivalPos="85.60" arrivalSpeed="13.36" duration="46.00" routeLength="175.13" waitingTime="23.00" waitingCount="1" stopTime="0.00" timeLoss="32.05" rerouteNo="0" devices="tripinfo_93" vType="DEFAULT_VEHTYPE" speedFactor="1.00" vaporized=""/>
    <tripinfo id="27" depart="10.00" departLane="5_3way_5to3way_13_0" departPos="5.10" departSpeed="0.00" departDelay="0.36" arrival="81.00" arrivalLane="12_3way_20to3way_27_0" arrivalPos="85.60" arrivalSpeed="13.68" duration="71.00" routeLength="383.70" waitingTime="33.00" waitingCount="1" stopTime="0.00" timeLoss="43.91" rerouteNo="0" devices="tripinfo_27" vType="DEFAULT_VEHTYPE" speedFactor="1.03" vaporized=""/>
    <tripinfo id="80" depart="31.00" departLane="14_3way_28to3way_21_0" departPos="5.10" departSpeed="0.00" departDelay="2.43" arrival="81.00" arrivalLane="2_3way_7to3way_1_0" arrivalPos="188.80" arrivalSpeed="10.41" duration="50.00" routeLength="483.70" waitingTime="0.00" waitingCount="0" stopTime="0.00" timeLoss="4.74" rerouteNo="0" devices="tripinfo_80" vType="DEFAULT_VEHTYPE" speedFactor="0.78" vaporized=""/>
    <tripinfo id="124" depart="45.00" departLane="27_3way_4to4way_11_0" departPos="5.10" departSpeed="0.00" departDelay="0.72" arrival="81.00" arrivalLane="44_4way_11to4way_12_0" arrivalPos="85.60" arrivalSpeed="15.36" duration="36.00" routeLength="175.13" waitingTime="13.00" waitingCount="1" stopTime="0.00" timeLoss="23.54" rerouteNo="0" devices="tripinfo_124" vType="DEFAULT_VEHTYPE" speedFactor="1.11" vaporized=""/>
    <tripinfo id="136" depart="49.00" departLane="74_4way_39to4way_32_0" departPos="5.10" departSpeed="0.00" departDelay="0.43" arrival="81.00" arrivalLane="69_4way_31to4way_30_0" arrivalPos="85.60" arrivalSpeed="10.09" duration="32.00" routeLength="275.13" waitingTime="1.00" waitingCount="1" stopTime="0.00" timeLoss="11.73" rerouteNo="0" devices="tripinfo_136" vType="DEFAULT_VEHTYPE" speedFactor="1.01" vaporized=""/>
    <tripinfo id="109" depart="39.00" departLane="66_4way_26to4way_33_0" departPos="5.10" departSpeed="0.00" departDelay="0.08" arrival="82.00" arrivalLane="23_4way_33to3way_34_0" arrivalPos="85.60" arrivalSpeed="13.28" duration="43.00" routeLength="175.13" waitingTime="20.00" waitingCount="1" stopTime="0.00" timeLoss="29.36" rerouteNo="0" devices="tripinfo_109" vType="DEFAULT_VEHTYPE" speedFactor="1.04" vaporized=""/>
    <tripinfo id="141" depart="51.00" departLane="61_4way_30to4way_23_0" departPos="5.10" departSpeed="0.00" departDelay="0.65" arrival="82.00" arrivalLane="58_4way_23to4way_22_0" arrivalPos="85.60" arrivalSpeed="13.69" duration="31.00" routeLength="175.13" waitingTime="7.00" waitingCount="1" stopTime="0.00" timeLoss="17.15" rerouteNo="0" devices="tripinfo_141" vType="DEFAULT_VEHTYPE" speedFactor="0.99" vaporized=""/>
    <tripinfo id="65" depart="24.00" departLane="70_4way_37to4way_30_0" departPos="5.10" departSpeed="0.00" departDelay="0.79" arrival="83.00" arrivalLane="52_4way_16to4way_9_0" arrivalPos="85.60" arrivalSpeed="10.17" duration="59.00" routeLength="380.50" waitingTime="26.00" waitingCount="1" stopTime="0.00" timeLoss="35.96" rerouteNo="0" devices="tripinfo_65" vType="DEFAULT_VEHTYPE" speedFactor="1.20" vaporized=""/>
    <tripinfo id="78" depart="28.00" departLane="65_4way_32to4way_25_0" departPos="5.10" departSpeed="0.00" departDelay="0.15" arrival="83.00" arrivalLane="62_4way_25to4way_24_0" arrivalPos="85.60" arrivalSpeed="13.30" duration="55.00" routeLength="175.13" waitingTime="30.00" waitingCount="1" stopTime="0.00" timeLoss="41.25" rerouteNo="0" devices="tripinfo_78" vType="DEFAULT_VEHTYPE" speedFactor="1.03" vaporized=""/>
    <tripinfo id="129" depart="49.00" departLane="41_4way_11to4way_10_0" departPos="5.10" departSpeed="0.00" departDelay="2.93" arrival="84.00" arrivalLane="41_4way_11to4way_10_0" arrivalPos="85.60" arrivalSpeed="9.30" duration="35.00" routeLength="80.50" waitingTime="17.00" waitingCount="1" stopTime="0.00" timeLoss="29.42" rerouteNo="0" devices="tripinfo_129" vType="DEFAULT_VEHTYPE" speedFactor="1.14" vaporized=""/>
    <tripinfo id="206" depart="77.00" departLane="75_4way_40to4way_33_0" departPos="5.10" departSpeed="0.00" departDelay="3.44" arrival="87.00" arrivalLane="75_4way_40to4way_33_0" arrivalPos="85.60" arrivalSpeed="12.46" duration="10.00" routeLength="80.50" waitingTime="0.00" waitingCount="0" stopTime="0.00" timeLoss="3.43" rerouteNo="0" devices="tripinfo_206" vType="DEFAULT_VEHTYPE" speedFactor="0.92" vaporized=""/>
    <tripinfo id="75" depart="27.00" departLane="52_4way_9to4way_16_0" departPos="5.10" departSpeed="0.00" departDelay="0.22" arrival="88.00" arrivalLane="53_4way_17to4way_18_0" arrivalPos="85.60" arrivalSpeed="15.08" duration="61.00" routeLength="275.13" waitingTime="30.00" waitingCount="1" stopTime="0.00" timeLoss="41.68" rerouteNo="0" devices="tripinfo_75" vType="DEFAULT_VEHTYPE" speedFactor="1.09" vaporized=""/>
    <tripinfo id="86" depart="31.00" departLane="11_3way_2to4way_9_0" departPos="5.10" departSpeed="0.00" departDelay="0.29" arrival="89.00" arrivalLane="50_4way_16to4way_17_0" arrivalPos="85.60" arrivalSpeed="13.88" duration="58.00" routeLength="275.13" waitingTime="24.00" waitingCount="1" stopTime="0.00" timeLoss="38.25" rerouteNo="0" devices="tripinfo_86" vType="DEFAULT_VEHTYPE" speedFactor="1.06" vaporized=""/>
    <tripinfo id="51" depart="19.00" departLane="66_4way_26to4way_33_0" departPos="5.10" departSpeed="0.00" departDelay="0.79" arrival="90.00" arrivalLane="38_4way_40to3way_47_0" arrivalPos="85.60" arrivalSpeed="9.28" duration="71.00" routeLength="280.50" waitingTime="34.00" waitingCount="1" stopTime="0.00" timeLoss="43.05" rerouteNo="0" devices="tripinfo_51" vType="DEFAULT_VEHTYPE" speedFactor="0.74" vaporized=""/>
    <tripinfo id="201" depart="72.00" departLane="2_3way_7to3way_1_0" departPos="5.10" departSpeed="0.00" departDelay="0.22" arrival="90.00" arrivalLane="2_3way_7to3way_1_0" arrivalPos="188.80" arrivalSpeed="11.72" duration="18.00" routeLength="183.70" waitingTime="0.00" waitingCount="0" stopTime="0.00" timeLoss="3.52" rerouteNo="0" devices="tripinfo_201" vType="DEFAULT_VEHTYPE" speedFactor="0.93" vaporized=""/>
    <tripinfo id="72" depart="26.00" departLane="79_4way_39to4way_40_0" departPos="5.10" departSpeed="0.00" departDelay="0.29" arrival="92.00" arrivalLane="12_3way_27to3way_20_0" arrivalPos="85.60" arrivalSpeed="11.47" duration="66.00" routeLength="475.13" waitingTime="22.00" waitingCount="1" stopTime="0.00" timeLoss="35.83" rerouteNo="0" devices="tripinfo_72" vType="DEFAULT_VEHTYPE" speedFactor="1.15" vaporized=""/>
    <tripinfo id="134" depart="48.00" departLane="66_4way_26to4way_33_0" departPos="5.10" departSpeed="0.00" departDelay="0.15" arrival="92.00" arrivalLane="38_4way_40to3way_47_0" arrivalPos="85.60" arrivalSpeed="13.62" duration="44.00" routeLength="280.50" waitingTime="11.00" waitingCount="1" stopTime="0.00" timeLoss="22.86" rerouteNo="0" devices="tripinfo_134" vType="DEFAULT_VEHTYPE" speedFactor="1.00" vaporized=""/>
    <tripinfo id="180" depart="65.00" departLane="53_4way_17to4way_18_0" departPos="5.10" departSpeed="0.00" departDelay="0.72" arrival="92.00" arrivalLane="46_4way_19to4way_12_0" arrivalPos="85.60" arrivalSpeed="13.34" duration="27.00" routeLength="275.13" waitingTime="0.00" waitingCount="0" stopTime="0.00" timeLoss="6.62" rerouteNo="0" devices="tripinfo_180" vType="DEFAULT_VEHTYPE" speedFactor="1.04" vaporized=""/>
    <tripinfo id="20" depart="8.00" departLane="4_3way_13to3way_20_0" departPos="5.10" departSpeed="0.00" departDelay="0.86" arrival="95.00" arrivalLane="22_3way_34to3way_41_0" arrivalPos="85.60" arrivalSpeed="11.90" duration="87.00" routeLength="380.50" waitingTime="46.00" waitingCount="1" stopTime="0.00" timeLoss="55.58" rerouteNo="0" devices="tripinfo_20" vType="DEFAULT_VEHTYPE" speedFactor="0.89" vaporized=""/>
    <tripinfo id="167" depart="60.00" departLane="10_3way_3to3way_2_0" departPos="5.10" departSpeed="0.00" departDelay="0.36" arrival="97.00" arrivalLane="3_3way_1to4way_8_0" arrivalPos="85.60" arrivalSpeed="11.30" duration="37.00" routeLength="275.13" waitingTime="2.00" waitingCount="1" stopTime="0.00" timeLoss="12.38" rerouteNo="0" devices="tripinfo_167" vType="DEFAULT_VEHTYPE" speedFactor="0.85" vaporized=""/>
    <tripinfo id="189" depart="68.00" departLane="12_3way_27to3way_20_0" departPos="5.10" departSpeed="0.00" departDelay="0.51" arrival="97.00" arrivalLane="55_4way_19to4way_18_0" arrivalPos="85.60" arrivalSpeed="11.66" duration="29.00" routeLength="275.13" waitingTime="0.00" waitingCount="0" stopTime="0.00" timeLoss="6.16" rerouteNo="0" devices="tripinfo_189" vType="DEFAULT_VEHTYPE" speedFactor="0.92" vaporized=""/>
    <tripinfo id="37" depart="14.00" departLane="7_3way_14to3way_21_0" departPos="5.10" departSpeed="0.00" departDelay="0.79" arrival="98.00" arrivalLane="24_3way_35to3way_43_0" arrivalPos="182.40" arrivalSpeed="12.87" duration="84.00" routeLength="477.30" waitingTime="35.00" waitingCount="1" stopTime="0.00" timeLoss="48.66" rerouteNo="0" devices="tripinfo_37" vType="DEFAULT_VEHTYPE" speedFactor="0.99" vaporized=""/>
    <tripinfo id="128" depart="46.00" departLane="46_4way_19to4way_12_0" departPos="5.10" departSpeed="0.00" departDelay="0.29" arrival="98.00" arrivalLane="1_3way_2to3way_1_0" arrivalPos="85.60" arrivalSpeed="13.46" duration="52.00" routeLength="575.13" waitingTime="1.00" waitingCount="1" stopTime="0.00" timeLoss="11.07" rerouteNo="0" devices="tripinfo_128" vType="DEFAULT_VEHTYPE" speedFactor="1.02" vaporized=""/>
    <tripinfo id="200" depart="73.00" departLane="11_3way_2to4way_9_0" departPos="5.10" departSpeed="0.00" departDelay="1.58" arrival="98.00" arrivalLane="51_4way_16to4way_23_0" arrivalPos="85.60" arrivalSpeed="13.29" duration="25.00" routeLength="280.50" waitingTime="0.00" waitingCount="0" stopTime="0.00" timeLoss="3.60" rerouteNo="0" devices="tripinfo_200" vType="DEFAULT_VEHTYPE" speedFactor="0.96" vaporized=""/>
    <tripinfo id="199" depart="72.00" departLane="36_3way_47to3way_46_0" departPos="5.10" departSpeed="0.00" departDelay="0.94" arrival="100.00" arrivalLane="30_3way_44to3way_43_0" arrivalPos="85.60" arrivalSpeed="16.60" duration="28.00" routeLength="380.50" waitingTime="0.00" waitingCount="0" stopTime="0.00" timeLoss="4.78" rerouteNo="0" devices="tripinfo_199" vType="DEFAULT_VEHTYPE" speedFactor="1.20" vaporized=""/>
    <tripinfo id="105" depart="38.00" departLane="14_3way_21to3way_28_0" departPos="5.10" departSpeed="0.00" departDelay="0.50" arrival="101.00" arrivalLane="24_3way_35to3way_43_0" arrivalPos="182.40" arrivalSpeed="12.36" duration="63.00" routeLength="377.30" waitingTime="22.00" waitingCount="1" stopTime="0.00" timeLoss="34.05" rerouteNo="0" devices="tripinfo_105" vType="DEFAULT_VEHTYPE" speedFactor="0.95" vaporized=""/>
    <tripinfo id="121" depart="44.00" departLane="47_4way_15to4way_16_0" departPos="5.10" departSpeed="0.00" departDelay="0.79" arrival="101.00" arrivalLane="13_4way_19to3way_20_0" arrivalPos="85.60" arrivalSpeed="8.30" duration="57.00" routeLength="480.50" waitingTime="0.00" waitingCount="0" stopTime="0.00" timeLoss="6.06" rerouteNo="0" devices="tripinfo_121" vType="DEFAULT_VEHTYPE" speedFactor="0.68" vaporized=""/>
    <tripinfo id="183" depart="66.00" departLane="17_3way_27to4way_26_0" departPos="5.10" departSpeed="0.00" departDelay="0.65" arrival="101.00" arrivalLane="38_4way_40to3way_47_0" arrivalPos="85.60" arrivalSpeed="12.12" duration="35.00" routeLength="375.13" waitingTime="0.00" waitingCount="0" stopTime="0.00" timeLoss="6.04" rerouteNo="0" devices="tripinfo_183" vType="DEFAULT_VEHTYPE" speedFactor="0.96" vaporized=""/>
    <tripinfo id="190" depart="68.00" departLane="14_3way_21to3way_28_0" departPos="5.10" departSpeed="0.00" departDelay="0.15" arrival="101.00" arrivalLane="67_4way_29to4way_30_0" arrivalPos="85.60" arrivalSpeed="14.46" duration="33.00" routeLength="275.13" waitingTime="0.00" waitingCount="0" stopTime="0.00" timeLoss="13.32" rerouteNo="0" devices="tripinfo_190" vType="DEFAULT_VEHTYPE" speedFactor="1.08" vaporized=""/>