<?xml version="1.0" encoding="UTF-8"?>

<!-- generated on 2023-08-22 00:14:42 by Eclipse SUMO sumo Version 1.12.0
<configuration xmlns:xsi="http://www.w3.org/2001/XMLSchema-instance" xsi:noNamespaceSchemaLocation="http://sumo.dlr.de/xsd/sumoConfiguration.xsd">

    <input>
        <net-file value="../../data_generation/sq.net.xml"/>
        <route-files value="../../data_generation/sq.rou.xml"/>
    </input>

    <output>
        <tripinfo-output value="tripinfo.xml"/>
        <statistic-output value="statistic.xml"/>
    </output>

    <time>
        <begin value="0"/>
        <end value="3600"/>
    </time>

    <processing>
        <time-to-teleport value="-1"/>
    </processing>

    <traci_server>
        <remote-port value="41453"/>
    </traci_server>

    <random_number>
        <seed value="1395"/>
    </random_number>

    <gui_only>
        <gui-settings-file value="../../data_generation/view_HY_0402.xml"/>
    </gui_only>

</configuration>
-->

<tripinfos xmlns:xsi="http://www.w3.org/2001/XMLSchema-instance" xsi:noNamespaceSchemaLocation="http://sumo.dlr.de/xsd/tripinfo_file.xsd">
    <tripinfo id="22" depart="2.00" departLane="1159_4way_90to4way_65_0" departPos="5.10" departSpeed="0.00" departDelay="0.90" arrival="19.00" arrivalLane="777_4way_65to4way_40_0" arrivalPos="85.60" arrivalSpeed="13.08" duration="17.00" routeLength="180.50" waitingTime="0.00" waitingCount="0" stopTime="0.00" timeLoss="3.76" rerouteNo="0" devices="tripinfo_22" vType="DEFAULT_VEHTYPE" speedFactor="1.00" vaporized=""/>
    <tripinfo id="198" depart="10.00" departLane="689_4way_381to4way_356_0" departPos="5.10" departSpeed="0.00" departDelay="0.10" arrival="20.00" arrivalLane="689_4way_381to4way_356_0" arrivalPos="85.60" arrivalSpeed="11.90" duration="10.00" routeLength="80.50" waitingTime="0.00" waitingCount="0" stopTime="0.00" timeLoss="3.02" rerouteNo="0" devices="tripinfo_198" vType="DEFAULT_VEHTYPE" speedFactor="0.87" vaporized=""/>
    <tripinfo id="213" depart="11.00" departLane="97_3way_474to3way_449_0" departPos="5.10" departSpeed="0.00" departDelay="0.35" arrival="31.00" arrivalLane="98_3way_449to4way_448_0" arrivalPos="85.60" arrivalSpeed="11.97" duration="20.00" routeLength="175.13" waitingTime="0.00" waitingCount="0" stopTime="0.00" timeLoss="5.45" rerouteNo="0" devices="tripinfo_213" vType="DEFAULT_VEHTYPE" speedFactor="0.91" vaporized=""/>
    <tripinfo id="326" depart="17.00" departLane="627_4way_326to4way_327_0" departPos="5.10" departSpeed="0.00" departDelay="0.70" arrival="34.00" arrivalLane="629_4way_327to4way_328_0" arrivalPos="85.60" arrivalSpeed="13.40" duration="17.00" routeLength="180.50" waitingTime="0.00" waitingCount="0" stopTime="0.00" timeLoss="3.16" rerouteNo="0" devices="tripinfo_326" vType="DEFAULT_VEHTYPE" speedFactor="1.00" vaporized=""/>
    <tripinfo id="576" depart="32.00" departLane="302_4way_154to4way_153_0" departPos="5.10" departSpeed="0.00" departDelay="3.20" arrival="41.00" arrivalLane="302_4way_154to4way_153_0" arrivalPos="85.60" arrivalSpeed="12.63" duration="9.00" routeLength="80.50" waitingTime="0.00" waitingCount="0" stopTime="0.00" timeLoss="2.89" rerouteNo="0" devices="tripinfo_576" vType="DEFAULT_VEHTYPE" speedFactor="1.00" vaporized=""/>
    <tripinfo id="610" depart="31.00" departLane="626_4way_323to4way_348_0" departPos="5.10" departSpeed="0.00" departDelay="0.50" arrival="41.00" arrivalLane="626_4way_323to4way_348_0" arrivalPos="85.60" arrivalSpeed="12.38" duration="10.00" routeLength="80.50" waitingTime="0.00" waitingCount="0" stopTime="0.00" timeLoss="3.70" rerouteNo="0" devices="tripinfo_610" vType="DEFAULT_VEHTYPE" speedFactor="0.93" vaporized=""/>
    <tripinfo id="443" depart="23.00" departLane="1005_4way_516to4way_517_0" departPos="5.10" departSpeed="0.00" departDelay="0.85" arrival="44.00" arrivalLane="961_4way_517to4way_492_0" arrivalPos="85.60" arrivalSpeed="11.76" duration="21.00" routeLength="175.13" waitingTime="0.00" waitingCount="0" stopTime="0.00" timeLoss="5.28" rerouteNo="0" devices="tripinfo_443" vType="DEFAULT_VEHTYPE" speedFactor="0.88" vaporized=""/>
    <tripinfo id="335" depart="17.00" departLane="790_4way_408to4way_407_0" departPos="5.10" departSpeed="0.00" departDelay="0.25" arrival="46.00" arrivalLane="842_4way_432to4way_457_0" arrivalPos="85.60" arrivalSpeed="12.41" duration="29.00" routeLength="275.13" waitingTime="0.00" waitingCount="0" stopTime="0.00" timeLoss="5.96" rerouteNo="0" devices="tripinfo_335" vType="DEFAULT_VEHTYPE" speedFactor="0.90" vaporized=""/>
    <tripinfo id="438" depart="22.00" departLane="740_4way_381to4way_406_0" departPos="5.10" departSpeed="0.00" departDelay="0.10" arrival="50.00" arrivalLane="790_4way_407to4way_408_0" arrivalPos="85.60" arrivalSpeed="11.70" duration="28.00" routeLength="275.13" waitingTime="0.00" waitingCount="0" stopTime="0.00" timeLoss="5.06" rerouteNo="0" devices="tripinfo_438" vType="DEFAULT_VEHTYPE" speedFactor="0.92" vaporized=""/>
    <tripinfo id="253" depart="13.00" departLane="41_3way_224to3way_199_0" departPos="5.10" departSpeed="0.00" departDelay="0.35" arrival="55.00" arrivalLane="381_4way_196to4way_195_0" arrivalPos="85.60" arrivalSpeed="12.57" duration="42.00" routeLength="475.13" waitingTime="0.00" waitingCount="0" stopTime="0.00" timeLoss="6.09" rerouteNo="0" devices="tripinfo_253" vType="DEFAULT_VEHTYPE" speedFactor="0.99" vaporized=""/>
    <tripinfo id="531" depart="27.00" departLane="176_3way_8to3way_7_0" departPos="5.10" departSpeed="0.00" departDelay="0.45" arrival="56.00" arrivalLane="89_3way_5to3way_4_0" arrivalPos="85.60" arrivalSpeed="15.24" duration="29.00" routeLength="380.50" waitingTime="0.00" waitingCount="0" stopTime="0.00" timeLoss="3.96" rerouteNo="0" devices="tripinfo_531" vType="DEFAULT_VEHTYPE" speedFactor="1.11" vaporized=""/>
    <tripinfo id="841" depart="43.00" departLane="45_3way_21to3way_20_0" departPos="5.10" departSpeed="0.00" departDelay="0.95" arrival="62.00" arrivalLane="46_3way_20to4way_45_0" arrivalPos="85.60" arrivalSpeed="13.43" duration="19.00" routeLength="175.13" waitingTime="0.00" waitingCount="0" stopTime="0.00" timeLoss="5.39" rerouteNo="0" devices="tripinfo_841" vType="DEFAULT_VEHTYPE" speedFactor="1.02" vaporized=""/>
    <tripinfo id="163" depart="9.00" departLane="860_4way_465to4way_440_0" departPos="5.10" departSpeed="0.00" departDelay="0.85" arrival="70.00" arrivalLane="560_4way_315to4way_290_0" arrivalPos="85.60" arrivalSpeed="11.85" duration="61.00" routeLength="680.50" waitingTime="0.00" waitingCount="0" stopTime="0.00" timeLoss="8.48" rerouteNo="0" devices="tripinfo_163" vType="DEFAULT_VEHTYPE" speedFactor="0.94" vaporized=""/>
    <tripinfo id="861" depart="44.00" departLane="973_4way_502to4way_501_0" departPos="5.10" departSpeed="0.00" departDelay="0.95" arrival="70.00" arrivalLane="113_3way_500to3way_525_0" arrivalPos="85.60" arrivalSpeed="12.88" duration="26.00" routeLength="275.13" waitingTime="0.00" waitingCount="0" stopTime="0.00" timeLoss="5.40" rerouteNo="0" devices="tripinfo_861" vType="DEFAULT_VEHTYPE" speedFactor="0.99" vaporized=""/>
    <tripinfo id="784" depart="40.00" departLane="844_4way_458to4way_433_0" departPos="5.10" departSpeed="0.00" departDelay="0.80" arrival="72.00" arrivalLane="788_4way_407to4way_406_0" arrivalPos="85.60" arrivalSpeed="13.65" duration="32.00" routeLength="375.13" waitingTime="0.00" waitingCount="0" stopTime="0.00" timeLoss="5.42" rerouteNo="0" devices="tripinfo_784" vType="DEFAULT_VEHTYPE" speedFactor="1.04" vaporized=""/>
    <tripinfo id="972" depart="53.00" departLane="109_3way_6to3way_5_0" departPos="5.10" departSpeed="0.00" departDelay="4.40" arrival="72.00" arrivalLane="89_3way_5to3way_4_0" arrivalPos="85.60" arrivalSpeed="7.76" duration="19.00" routeLength="180.50" waitingTime="0.00" waitingCount="0" stopTime="0.00" timeLoss="7.21" rerouteNo="0" devices="tripinfo_972" vType="DEFAULT_VEHTYPE" speedFactor="1.12" vaporized=""/>
    <tripinfo id="1258" depart="63.00" departLane="785_4way_429to4way_404_0" departPos="5.10" departSpeed="0.00" departDelay="0.10" arrival="73.00" arrivalLane="785_4way_429to4way_404_0" arrivalPos="85.60" arrivalSpeed="12.43" duration="10.00" routeLength="80.50" waitingTime="0.00" waitingCount="0" stopTime="0.00" timeLoss="3.07" rerouteNo="0" devices="tripinfo_1258" vType="DEFAULT_VEHTYPE" speedFactor="0.94" vaporized=""/>
    <tripinfo id="906" depart="46.00" departLane="1020_4way_547to4way_522_0" departPos="5.10" departSpeed="0.00" departDelay="0.70" arrival="75.00" arrivalLane="971_4way_522to4way_497_0" arrivalPos="85.60" arrivalSpeed="10.32" duration="29.00" routeLength="180.50" waitingTime="4.00" waitingCount="1" stopTime="0.00" timeLoss="14.80" rerouteNo="0" devices="tripinfo_906" vType="DEFAULT_VEHTYPE" speedFactor="0.95" vaporized=""/>
    <tripinfo id="178" depart="9.00" departLane="74_3way_300to4way_301_0" departPos="5.10" departSpeed="0.00" departDelay="0.10" arrival="76.00" arrivalLane="582_4way_303to4way_304_0" arrivalPos="85.60" arrivalSpeed="14.23" duration="67.00" routeLength="380.50" waitingTime="32.00" waitingCount="1" stopTime="0.00" timeLoss="41.19" rerouteNo="0" devices="tripinfo_178" vType="DEFAULT_VEHTYPE" speedFactor="1.07" vaporized=""/>
    <tripinfo id="479" depart="24.00" departLane="876_4way_46to4way_45_0" departPos="5.10" departSpeed="0.00" departDelay="0.05" arrival="76.00" arrivalLane="877_4way_45to4way_70_0" arrivalPos="85.60" arrivalSpeed="14.10" duration="52.00" routeLength="175.13" waitingTime="31.00" waitingCount="1" stopTime="0.00" timeLoss="38.69" rerouteNo="0" devices="tripinfo_479" vType="DEFAULT_VEHTYPE" speedFactor="1.04" vaporized=""/>
    <tripinfo id="692" depart="35.00" departLane="650_4way_361to4way_336_0" departPos="5.10" departSpeed="0.00" departDelay="0.40" arrival="76.00" arrivalLane="647_4way_336to4way_335_0" arrivalPos="85.60" arrivalSpeed="14.73" duration="41.00" routeLength="175.13" waitingTime="19.00" waitingCount="1" stopTime="0.00" timeLoss="29.01" rerouteNo="0" devices="tripinfo_692" vType="DEFAULT_VEHTYPE" speedFactor="1.13" vaporized=""/>
    <tripinfo id="115" depart="6.00" departLane="881_4way_452to4way_477_0" departPos="5.10" departSpeed="0.00" departDelay="0.25" arrival="77.00" arrivalLane="975_4way_502to4way_503_0" arrivalPos="85.60" arrivalSpeed="12.52" duration="71.00" routeLength="275.13" waitingTime="41.00" waitingCount="1" stopTime="0.00" timeLoss="48.56" rerouteNo="0" devices="tripinfo_115" vType="DEFAULT_VEHTYPE" speedFactor="0.92" vaporized=""/>
    <tripinfo id="128" depart="7.00" departLane="900_4way_462to4way_461_0" departPos="5.10" departSpeed="0.00" departDelay="0.60" arrival="77.00" arrivalLane="996_4way_511to4way_536_0" arrivalPos="85.60" arrivalSpeed="13.93" duration="70.00" routeLength="375.13" waitingTime="32.00" waitingCount="1" stopTime="0.00" timeLoss="42.25" rerouteNo="0" devices="tripinfo_128" vType="DEFAULT_VEHTYPE" speedFactor="1.02" vaporized=""/>
    <tripinfo id="493" depart="25.00" departLane="617_4way_319to4way_344_0" departPos="5.10" departSpeed="0.00" departDelay="0.35" arrival="77.00" arrivalLane="716_4way_369to4way_370_0" arrivalPos="85.60" arrivalSpeed="12.17" duration="52.00" routeLength="275.13" waitingTime="21.00" waitingCount="1" stopTime="0.00" timeLoss="30.10" rerouteNo="0" devices="tripinfo_493" vType="DEFAULT_VEHTYPE" speedFactor="0.94" vaporized=""/>
    <tripinfo id="669" depart="34.00" departLane="392_4way_204to4way_203_0" departPos="5.10" departSpeed="0.00" departDelay="0.55" arrival="77.00" arrivalLane="438_4way_228to4way_253_0" arrivalPos="85.60" arrivalSpeed="14.39" duration="43.00" routeLength="275.13" waitingTime="12.00" waitingCount="1" stopTime="0.00" timeLoss="23.47" rerouteNo="0" devices="tripinfo_669" vType="DEFAULT_VEHTYPE" speedFactor="1.08" vaporized=""/>
    <tripinfo id="1340" depart="67.00" departLane="934_4way_504to4way_479_0" departPos="5.10" departSpeed="0.00" departDelay="0.00" arrival="77.00" arrivalLane="934_4way_504to4way_479_0" arrivalPos="85.60" arrivalSpeed="13.04" duration="10.00" routeLength="80.50" waitingTime="0.00" waitingCount="0" stopTime="0.00" timeLoss="3.43" rerouteNo="0" devices="tripinfo_1340" vType="DEFAULT_VEHTYPE" speedFactor="0.95" vaporized=""/>
    <tripinfo id="351" depart="18.00" departLane="163_3way_617to3way_618_0" departPos="5.10" departSpeed="0.00" departDelay="0.45" arrival="78.00" arrivalLane="165_3way_618to3way_619_0" arrivalPos="85.60" arrivalSpeed="11.64" duration="60.00" routeLength="180.50" waitingTime="35.00" waitingCount="1" stopTime="0.00" timeLoss="44.73" rerouteNo="0" devices="tripinfo_351" vType="DEFAULT_VEHTYPE" speedFactor="0.85" vaporized=""/>
    <tripinfo id="726" depart="37.00" departLane="920_4way_471to4way_470_0" departPos="5.10" departSpeed="0.00" departDelay="0.70" arrival="79.00" arrivalLane="921_4way_470to4way_495_0" arrivalPos="85.60" arrivalSpeed="11.62" duration="42.00" routeLength="175.13" waitingTime="17.00" waitingCount="1" stopTime="0.00" timeLoss="25.33" rerouteNo="0" devices="tripinfo_726" vType="DEFAULT_VEHTYPE" speedFactor="0.85" vaporized=""/>
    <tripinfo id="1377" depart="69.00" departLane="153_3way_612to3way_613_0" departPos="5.10" departSpeed="0.00" departDelay="0.15" arrival="79.00" arrivalLane="153_3way_612to3way_613_0" arrivalPos="85.60" arrivalSpeed="14.93" duration="10.00" routeLength="80.50" waitingTime="0.00" waitingCount="0" stopTime="0.00" timeLoss="3.74" rerouteNo="0" devices="tripinfo_1377" vType="DEFAULT_VEHTYPE" speedFactor="1.09" vaporized=""/>
    <tripinfo id="637" depart="32.00" departLane="286_4way_142to4way_167_0" departPos="5.10" departSpeed="0.00" departDelay="0.15" arrival="80.00" arrivalLane="330_4way_167to4way_168_0" arrivalPos="85.60" arrivalSpeed="12.90" duration="48.00" routeLength="175.13" waitingTime="25.00" waitingCount="1" stopTime="0.00" timeLoss="32.79" rerouteNo="0" devices="tripinfo_637" vType="DEFAULT_VEHTYPE" speedFactor="0.94" vaporized=""/>
    <tripinfo id="679" depart="34.00" departLane="709_4way_365to4way_390_0" departPos="5.10" departSpeed="0.00" departDelay="0.05" arrival="81.00" arrivalLane="861_4way_441to4way_442_0" arrivalPos="85.60" arrivalSpeed="15.04" duration="47.00" routeLength="475.13" waitingTime="2.00" waitingCount="1" stopTime="0.00" timeLoss="16.58" rerouteNo="0" devices="tripinfo_679" vType="DEFAULT_VEHTYPE" speedFactor="1.16" vaporized=""/>
    <tripinfo id="1066" depart="55.00" departLane="118_3way_525to4way_526_0" departPos="5.10" departSpeed="0.00" departDelay="1.70" arrival="81.00" arrivalLane="976_4way_527to4way_502_0" arrivalPos="85.60" arrivalSpeed="13.27" duration="26.00" routeLength="275.13" waitingTime="0.00" waitingCount="0" stopTime="0.00" timeLoss="6.29" rerouteNo="0" devices="tripinfo_1066" vType="DEFAULT_VEHTYPE" speedFactor="1.03" vaporized=""/>
    <tripinfo id="334" depart="17.00" departLane="325_4way_164to4way_189_0" departPos="5.10" departSpeed="0.00" departDelay="0.30" arrival="82.00" arrivalLane="371_4way_190to4way_191_0" arrivalPos="85.60" arrivalSpeed="16.14" duration="65.00" routeLength="275.13" waitingTime="39.00" waitingCount="1" stopTime="0.00" timeLoss="47.90" rerouteNo="0" devices="tripinfo_334" vType="DEFAULT_VEHTYPE" speedFactor="1.19" vaporized=""/>
    <tripinfo id="878" depart="44.00" departLane="1066_4way_547to4way_546_0" departPos="5.10" departSpeed="0.00" departDelay="0.10" arrival="82.00" arrivalLane="1064_4way_546to4way_545_0" arrivalPos="85.60" arrivalSpeed="15.21" duration="38.00" routeLength="180.50" waitingTime="16.00" waitingCount="1" stopTime="0.00" timeLoss="26.16" rerouteNo="0" devices="tripinfo_878" vType="DEFAULT_VEHTYPE" speedFactor="1.15" vaporized=""/>
    <tripinfo id="168" depart="9.00" departLane="1114_4way_82to4way_57_0" departPos="5.10" departSpeed="0.00" departDelay="0.60" arrival="84.00" arrivalLane="557_4way_30to4way_29_0" arrivalPos="85.60" arrivalSpeed="14.95" duration="75.00" routeLength="475.13" waitingTime="30.00" waitingCount="1" stopTime="0.00" timeLoss="42.79" rerouteNo="0" devices="tripinfo_168" vType="DEFAULT_VEHTYPE" speedFactor="1.10" vaporized=""/>
    <tripinfo id="212" depart="11.00" departLane="316_4way_160to4way_161_0" departPos="5.10" departSpeed="0.00" departDelay="0.40" arrival="84.00" arrivalLane="322_4way_163to4way_164_0" arrivalPos="85.60" arrivalSpeed="13.60" duration="73.00" routeLength="380.50" waitingTime="36.00" waitingCount="1" stopTime="0.00" timeLoss="45.55" rerouteNo="0" devices="tripinfo_212" vType="DEFAULT_VEHTYPE" speedFactor="1.00" vaporized=""/>
    <tripinfo id="1015" depart="51.00" departLane="112_3way_50to4way_51_0" departPos="5.10" departSpeed="0.00" departDelay="0.25" arrival="84.00" arrivalLane="3_4way_26to3way_1_0" arrivalPos="85.60" arrivalSpeed="13.67" duration="33.00" routeLength="275.13" waitingTime="2.00" waitingCount="1" stopTime="0.00" timeLoss="12.94" rerouteNo="0" devices="tripinfo_1015" vType="DEFAULT_VEHTYPE" speedFactor="1.06" vaporized=""/>
    <tripinfo id="888" depart="45.00" departLane="786_4way_405to4way_406_0" departPos="5.10" departSpeed="0.00" departDelay="0.60" arrival="85.00" arrivalLane="790_4way_407to4way_408_0" arrivalPos="85.60" arrivalSpeed="13.42" duration="40.00" routeLength="280.50" waitingTime="10.00" waitingCount="1" stopTime="0.00" timeLoss="18.99" rerouteNo="0" devices="tripinfo_888" vType="DEFAULT_VEHTYPE" speedFactor="0.99" vaporized=""/>
    <tripinfo id="761" depart="39.00" departLane="796_4way_42to4way_41_0" departPos="5.10" departSpeed="0.00" departDelay="0.95" arrival="86.00" arrivalLane="718_4way_38to4way_37_0" arrivalPos="85.60" arrivalSpeed="11.34" duration="47.00" routeLength="480.50" waitingTime="2.00" waitingCount="1" stopTime="0.00" timeLoss="14.82" rerouteNo="0" devices="tripinfo_761" vType="DEFAULT_VEHTYPE" speedFactor="1.08" vaporized=""/>
    <tripinfo id="18" depart="4.00" departLane="754_4way_413to4way_388_0" departPos="5.10" departSpeed="0.00" departDelay="3.10" arrival="87.00" arrivalLane="654_4way_363to4way_338_0" arrivalPos="85.60" arrivalSpeed="12.56" duration="83.00" routeLength="280.50" waitingTime="52.00" waitingCount="1" stopTime="0.00" timeLoss="60.95" rerouteNo="0" devices="tripinfo_18" vType="DEFAULT_VEHTYPE" speedFactor="0.96" vaporized=""/>
    <tripinfo id="370" depart="19.00" departLane="297_4way_148to4way_173_0" departPos="5.10" departSpeed="0.00" departDelay="0.50" arrival="87.00" arrivalLane="42_4way_198to3way_199_0" arrivalPos="85.60" arrivalSpeed="12.12" duration="68.00" routeLength="275.13" waitingTime="35.00" waitingCount="1" stopTime="0.00" timeLoss="46.34" rerouteNo="0" devices="tripinfo_370" vType="DEFAULT_VEHTYPE" speedFactor="0.96" vaporized=""/>
    <tripinfo id="388" depart="21.00" departLane="362_4way_210to4way_185_0" departPos="5.10" departSpeed="0.00" departDelay="1.60" arrival="87.00" arrivalLane="314_4way_160to4way_159_0" arrivalPos="85.60" arrivalSpeed="12.95" duration="66.00" routeLength="275.13" waitingTime="35.00" waitingCount="1" stopTime="0.00" timeLoss="44.03" rerouteNo="0" devices="tripinfo_388" vType="DEFAULT_VEHTYPE" speedFactor="0.95" vaporized=""/>
    <tripinfo id="554" depart="28.00" departLane="987_4way_508to4way_509_0" departPos="5.10" departSpeed="0.00" departDelay="0.30" arrival="88.00" arrivalLane="895_4way_484to4way_459_0" arrivalPos="85.60" arrivalSpeed="12.63" duration="60.00" routeLength="275.13" waitingTime="28.00" waitingCount="1" stopTime="0.00" timeLoss="37.96" rerouteNo="0" devices="tripinfo_554" vType="DEFAULT_VEHTYPE" speedFactor="0.97" vaporized=""/>
    <tripinfo id="1186" depart="60.00" departLane="596_4way_32to4way_31_0" departPos="5.10" departSpeed="0.00" departDelay="0.70" arrival="89.00" arrivalLane="577_4way_30to4way_55_0" arrivalPos="85.60" arrivalSpeed="12.63" duration="29.00" routeLength="275.13" waitingTime="0.00" waitingCount="0" stopTime="0.00" timeLoss="7.37" rerouteNo="0" devices="tripinfo_1186" vType="DEFAULT_VEHTYPE" speedFactor="0.96" vaporized=""/>
    <tripinfo id="381" depart="20.00" departLane="1091_4way_56to4way_57_0" departPos="5.10" departSpeed="0.00" departDelay="0.95" arrival="90.00" arrivalLane="658_4way_59to4way_34_0" arrivalPos="85.60" arrivalSpeed="16.65" duration="70.00" routeLength="375.13" waitingTime="34.00" waitingCount="1" stopTime="0.00" timeLoss="47.82" rerouteNo="0" devices="tripinfo_381" vType="DEFAULT_VEHTYPE" speedFactor="1.27" vaporized=""/>
    <tripinfo id="454" depart="24.00" departLane="118_3way_525to4way_526_0" departPos="5.10" departSpeed="0.00" departDelay="1.30" arrival="92.00" arrivalLane="828_4way_451to4way_426_0" arrivalPos="85.60" arrivalSpeed="12.76" duration="68.00" routeLength="475.13" waitingTime="20.00" waitingCount="1" stopTime="0.00" timeLoss="33.36" rerouteNo="0" devices="tripinfo_454" vType="DEFAULT_VEHTYPE" speedFactor="1.01" vaporized=""/>
    <tripinfo id="177" depart="9.00" departLane="506_4way_265to4way_264_0" departPos="5.10" departSpeed="0.00" departDelay="0.15" arrival="94.00" arrivalLane="501_4way_261to4way_286_0" arrivalPos="85.60" arrivalSpeed="14.16" duration="85.00" routeLength="475.13" waitingTime="39.00" waitingCount="1" stopTime="0.00" timeLoss="50.18" rerouteNo="0" devices="tripinfo_177" vType="DEFAULT_VEHTYPE" speedFactor="1.03" vaporized=""/>
    <tripinfo id="397" depart="20.00" departLane="296_4way_147to4way_172_0" departPos="5.10" departSpeed="0.00" departDelay="0.15" arrival="94.00" arrivalLane="475_4way_247to4way_248_0" arrivalPos="85.60" arrivalSpeed="13.40" duration="74.00" routeLength="475.13" waitingTime="27.00" waitingCount="1" stopTime="0.00" timeLoss="40.99" rerouteNo="0" devices="tripinfo_397" vType="DEFAULT_VEHTYPE" speedFactor="1.05" vaporized=""/>
    <tripinfo id="176" depart="9.00" departLane="848_4way_460to4way_435_0" departPos="5.10" departSpeed="0.00" departDelay="0.20" arrival="95.00" arrivalLane="743_4way_384to4way_383_0" arrivalPos="85.60" arrivalSpeed="13.29" duration="86.00" routeLength="475.13" waitingTime="37.00" waitingCount="1" stopTime="0.00" timeLoss="49.61" rerouteNo="0" devices="tripinfo_176" vType="DEFAULT_VEHTYPE" speedFactor="0.97" vaporized=""/>
    <tripinfo id="1400" depart="70.00" departLane="518_4way_27to4way_28_0" departPos="5.10" departSpeed="0.00" departDelay="0.00" arrival="95.00" arrivalLane="90_4way_29to3way_4_0" arrivalPos="85.60" arrivalSpeed="13.86" duration="25.00" routeLength="275.13" waitingTime="0.00" waitingCount="0" stopTime="0.00" timeLoss="5.53" rerouteNo="0" devices="tripinfo_1400" vType="DEFAULT_VEHTYPE" speedFactor="1.07" vaporized=""/>
    <tripinfo id="1511" depart="77.00" departLane="823_4way_421to4way_446_0" departPos="5.10" departSpeed="0.00" departDelay="1.45" arrival="95.00" arrivalLane="871_4way_446to4way_447_0" arrivalPos="85.60" arrivalSpeed="14.08" duration="18.00" routeLength="175.13" waitingTime="0.00" waitingCount="0" stopTime="0.00" timeLoss="5.37" rerouteNo="0" devices="tripinfo_1511" vType="DEFAULT_VEHTYPE" speedFactor="1.04" vaporized=""/>
    <tripinfo id="156" depart="8.00" departLane="157_3way_614to3way_615_0" departPos="5.10" departSpeed="0.00" departDelay="0.20" arrival="96.00" arrivalLane="167_3way_619to3way_620_0" arrivalPos="85.60" arrivalSpeed="12.60" duration="88.00" routeLength="580.50" waitingTime="32.00" waitingCount="1" stopTime="0.00" timeLoss="42.23" rerouteNo="0" devices="tripinfo_156" vType="DEFAULT_VEHTYPE" speedFactor="0.91" vaporized=""/>
    <tripinfo id="367" depart="19.00" departLane="462_4way_265to4way_240_0" departPos="5.10" departSpeed="0.00" departDelay="0.65" arrival="96.00" arrivalLane="451_4way_236to4way_235_0" arrivalPos="85.60" arrivalSpeed="14.87" duration="77.00" routeLength="575.13" waitingTime="28.00" waitingCount="1" stopTime="0.00" timeLoss="39.99" rerouteNo="0" devices="tripinfo_367" vType="DEFAULT_VEHTYPE" speedFactor="1.14" vaporized=""/>
    <tripinfo id="887" depart="45.00" departLane="728_4way_376to4way_401_0" departPos="5.10" departSpeed="0.00" departDelay="0.65" arrival="96.00" arrivalLane="879_4way_451to4way_476_0" arrivalPos="85.60" arrivalSpeed="12.64" duration="51.00" routeLength="380.50" waitingTime="12.00" waitingCount="1" stopTime="0.00" timeLoss="21.73" rerouteNo="0" devices="tripinfo_887" vType="DEFAULT_VEHTYPE" speedFactor="0.96" vaporized=""/>
    <tripinfo id="898" depart="45.00" departLane="219_4way_112to4way_137_0" departPos="5.10" departSpeed="0.00" departDelay="0.10" arrival="96.00" arrivalLane="283_4way_141to4way_142_0" arrivalPos="85.60" arrivalSpeed="16.30" duration="51.00" routeLength="575.13" waitingTime="1.00" waitingCount="1" stopTime="0.00" timeLoss="14.88" rerouteNo="0" devices="tripinfo_898" vType="DEFAULT_VEHTYPE" speedFactor="1.19" vaporized=""/>
    <tripinfo id="937" depart="47.00" departLane="1184_4way_86to4way_85_0" departPos="5.10" departSpeed="0.00" departDelay="0.15" arrival="98.00" arrivalLane="208_4way_83to4way_108_0" arrivalPos="85.60" arrivalSpeed="15.67" duration="51.00" routeLength="375.13" waitingTime="11.00" waitingCount="1" stopTime="0.00" timeLoss="27.45" rerouteNo="0" devices="tripinfo_937" vType="DEFAULT_VEHTYPE" speedFactor="1.17" vaporized=""/>
    <tripinfo id="857" depart="44.00" departLane="530_4way_302to4way_277_0" departPos="5.10" departSpeed="0.00" departDelay="1.15" arrival="103.00" arrivalLane="253_4way_127to4way_126_0" arrivalPos="85.60" arrivalSpeed="15.46" duration="59.00" routeLength="775.13" waitingTime="0.00" waitingCount="0" stopTime="0.00" timeLoss="7.72" rerouteNo="0" devices="tripinfo_857" vType="DEFAULT_VEHTYPE" speedFactor="1.11" vaporized=""/>
    <tripinfo id="490" depart="25.00" departLane="915_4way_468to4way_493_0" departPos="5.10" departSpeed="0.00" departDelay="0.50" arrival="104.00" arrivalLane="1064_4way_545to4way_546_0" arrivalPos="85.60" arrivalSpeed="11.36" duration="79.00" routeLength="575.13" waitingTime="21.00" waitingCount="1" stopTime="0.00" timeLoss="32.65" rerouteNo="0" devices="tripinfo_490" vType="DEFAULT_VEHTYPE" speedFactor="0.91" vaporized=""/>
    <tripinfo id="2" depart="1.00" departLane="553_4way_289to4way_288_0" departPos="5.10" departSpeed="0.00" departDelay="0.90" arrival="106.00" arrivalLane="543_4way_284to4way_283_0" arrivalPos="85.60" arrivalSpeed="14.22" duration="105.00" routeLength="580.50" waitingTime="55.00" waitingCount="1" stopTime="0.00" timeLoss="64.62" rerouteNo="0" devices="tripinfo_2" vType="DEFAULT_VEHTYPE" speedFactor="1.04" vaporized=""/>
    <tripinfo id="323" depart="17.00" departLane="855_4way_439to4way_440_0" departPos="5.10" departSpeed="0.00" departDelay="0.85" arrival="106.00" arrivalLane="609_4way_340to4way_315_0" arrivalPos="85.60" arrivalSpeed="15.32" duration="89.00" routeLength="575.13" waitingTime="36.00" waitingCount="1" stopTime="0.00" timeLoss="51.97" rerouteNo="0" devices="tripinfo_323" vType="DEFAULT_VEHTYPE" speedFactor="1.15" vaporized=""/>
    <tripinfo id="758" depart="38.00" departLane="378_4way_218to4way_193_0" departPos="5.10" departSpeed="0.00" departDelay="0.10" arrival="107.00" arrivalLane="230_4way_117to4way_116_0" arrivalPos="85.60" arrivalSpeed="14.15" duration="69.00" routeLength="575.13" waitingTime="17.00" waitingCount="1" stopTime="0.00" timeLoss="29.35" rerouteNo="0" devices="tripinfo_758" vType="DEFAULT_VEHTYPE" speedFactor="1.06" vaporized=""/>
    <tripinfo id="1951" depart="98.00" departLane="1033_4way_530to4way_555_0" departPos="5.10" departSpeed="0.00" departDelay="0.45" arrival="107.00" arrivalLane="1033_4way_530to4way_555_0" arrivalPos="85.60" arrivalSpeed="13.23" duration="9.00" routeLength="80.50" waitingTime="0.00" waitingCount="0" stopTime="0.00" timeLoss="2.91" rerouteNo="0" devices="tripinfo_1951" vType="DEFAULT_VEHTYPE" speedFactor="0.99" vaporized=""/>
    <tripinfo id="500" depart="25.00" departLane="177_3way_7to4way_32_0" departPos="5.10" departSpeed="0.00" departDelay="0.00" arrival="108.00" arrivalLane="718_4way_37to4way_38_0" arrivalPos="85.60" arrivalSpeed="11.98" duration="83.00" routeLength="675.13" waitingTime="10.00" waitingCount="1" stopTime="0.00" timeLoss="28.34" rerouteNo="0" devices="tripinfo_500" vType="DEFAULT_VEHTYPE" speedFactor="0.92" vaporized=""/>
    <tripinfo id="533" depart="27.00" departLane="1174_4way_73to4way_98_0" departPos="5.10" departSpeed="0.00" departDelay="0.35" arrival="108.00" arrivalLane="60_4way_248to3way_249_0" arrivalPos="85.60" arrivalSpeed="14.48" duration="81.00" routeLength="775.13" waitingTime="15.00" waitingCount="1" stopTime="0.00" timeLoss="28.70" rerouteNo="0" devices="tripinfo_533" vType="DEFAULT_VEHTYPE" speedFactor="1.09" vaporized=""/>
    <tripinfo id="439" depart="22.00" departLane="910_4way_466to4way_467_0" departPos="5.10" departSpeed="0.00" departDelay="0.05" arrival="109.00" arrivalLane="872_4way_471to4way_446_0" arrivalPos="85.60" arrivalSpeed="13.55" duration="87.00" routeLength="575.13" waitingTime="32.00" waitingCount="1" stopTime="0.00" timeLoss="45.40" rerouteNo="0" devices="tripinfo_439" vType="DEFAULT_VEHTYPE" speedFactor="1.01" vaporized=""/>
    <tripinfo id="1985" depart="100.00" departLane="648_4way_360to4way_335_0" departPos="5.10" departSpeed="0.00" departDelay="0.75" arrival="110.00" arrivalLane="648_4way_360to4way_335_0" arrivalPos="85.60" arrivalSpeed="14.70" duration="10.00" routeLength="80.50" waitingTime="0.00" waitingCount="0" stopTime="0.00" timeLoss="3.55" rerouteNo="0" devices="tripinfo_1985" vType="DEFAULT_VEHTYPE" speedFactor="1.06" vaporized=""/>
    <tripinfo id="1988" depart="101.00" departLane="100_4way_451to3way_450_0" departPos="5.10" departSpeed="0.00" departDelay="1.60" arrival="110.00" arrivalLane="100_4way_451to3way_450_0" arrivalPos="85.60" arrivalSpeed="14.77" duration="9.00" routeLength="80.50" waitingTime="0.00" waitingCount="0" stopTime="0.00" timeLoss="3.35" rerouteNo="0" devices="tripinfo_1988" vType="DEFAULT_VEHTYPE" speedFactor="1.07" vaporized=""/>