<?xml version="1.0" encoding="UTF-8"?>

<!-- generated on 2023-08-17 14:21:36 by Eclipse SUMO sumo Version 1.12.0
<configuration xmlns:xsi="http://www.w3.org/2001/XMLSchema-instance" xsi:noNamespaceSchemaLocation="http://sumo.dlr.de/xsd/sumoConfiguration.xsd">

    <input>
        <net-file value="../../data_generation/sq.net.xml"/>
        <route-files value="../../data_generation/sq.rou.xml"/>
    </input>

    <output>
        <tripinfo-output value="tripinfo.xml"/>
        <statistic-output value="statistic.xml"/>
    </output>

    <time>
        <begin value="0"/>
        <end value="3600"/>
    </time>

    <processing>
        <time-to-teleport value="-1"/>
    </processing>

    <traci_server>
        <remote-port value="40017"/>
    </traci_server>

    <random_number>
        <seed value="1395"/>
    </random_number>

    <gui_only>
        <gui-settings-file value="../../data_generation/view_HY_0402.xml"/>
    </gui_only>

</configuration>
-->

<tripinfos xmlns:xsi="http://www.w3.org/2001/XMLSchema-instance" xsi:noNamespaceSchemaLocation="http://sumo.dlr.de/xsd/tripinfo_file.xsd">
    <tripinfo id="22" depart="2.00" departLane="1159_4way_90to4way_65_0" departPos="5.10" departSpeed="0.00" departDelay="0.74" arrival="19.00" arrivalLane="777_4way_65to4way_40_0" arrivalPos="85.60" arrivalSpeed="13.38" duration="17.00" routeLength="180.50" waitingTime="0.00" waitingCount="0" stopTime="0.00" timeLoss="3.15" rerouteNo="0" devices="tripinfo_22" vType="DEFAULT_VEHTYPE" speedFactor="1.00" vaporized=""/>
    <tripinfo id="198" depart="12.00" departLane="689_4way_381to4way_356_0" departPos="5.10" departSpeed="0.00" departDelay="0.69" arrival="22.00" arrivalLane="689_4way_381to4way_356_0" arrivalPos="85.60" arrivalSpeed="10.90" duration="10.00" routeLength="80.50" waitingTime="0.00" waitingCount="0" stopTime="0.00" timeLoss="2.68" rerouteNo="0" devices="tripinfo_198" vType="DEFAULT_VEHTYPE" speedFactor="0.87" vaporized=""/>
    <tripinfo id="18" depart="4.00" departLane="754_4way_413to4way_388_0" departPos="5.10" departSpeed="0.00" departDelay="2.97" arrival="29.00" arrivalLane="654_4way_363to4way_338_0" arrivalPos="85.60" arrivalSpeed="12.75" duration="25.00" routeLength="280.50" waitingTime="0.00" waitingCount="0" stopTime="0.00" timeLoss="3.78" rerouteNo="0" devices="tripinfo_18" vType="DEFAULT_VEHTYPE" speedFactor="0.96" vaporized=""/>
    <tripinfo id="332" depart="19.00" departLane="941_4way_482to4way_507_0" departPos="5.10" departSpeed="0.00" departDelay="0.04" arrival="39.00" arrivalLane="986_4way_507to4way_532_0" arrivalPos="85.60" arrivalSpeed="11.57" duration="20.00" routeLength="180.50" waitingTime="0.00" waitingCount="0" stopTime="0.00" timeLoss="3.62" rerouteNo="0" devices="tripinfo_332" vType="DEFAULT_VEHTYPE" speedFactor="0.83" vaporized=""/>
    <tripinfo id="351" depart="21.00" departLane="163_3way_617to3way_618_0" departPos="5.10" departSpeed="0.00" departDelay="0.96" arrival="39.00" arrivalLane="165_3way_618to3way_619_0" arrivalPos="85.60" arrivalSpeed="11.15" duration="18.00" routeLength="180.50" waitingTime="0.00" waitingCount="0" stopTime="0.00" timeLoss="2.66" rerouteNo="0" devices="tripinfo_351" vType="DEFAULT_VEHTYPE" speedFactor="0.85" vaporized=""/>
    <tripinfo id="576" depart="33.00" departLane="302_4way_154to4way_153_0" departPos="5.10" departSpeed="0.00" departDelay="0.11" arrival="42.00" arrivalLane="302_4way_154to4way_153_0" arrivalPos="85.60" arrivalSpeed="12.72" duration="9.00" routeLength="80.50" waitingTime="0.00" waitingCount="0" stopTime="0.00" timeLoss="3.22" rerouteNo="0" devices="tripinfo_576" vType="DEFAULT_VEHTYPE" speedFactor="1.00" vaporized=""/>
    <tripinfo id="610" depart="35.00" departLane="626_4way_323to4way_348_0" departPos="5.10" departSpeed="0.00" departDelay="0.17" arrival="45.00" arrivalLane="626_4way_323to4way_348_0" arrivalPos="85.60" arrivalSpeed="12.42" duration="10.00" routeLength="80.50" waitingTime="0.00" waitingCount="0" stopTime="0.00" timeLoss="2.95" rerouteNo="0" devices="tripinfo_610" vType="DEFAULT_VEHTYPE" speedFactor="0.93" vaporized=""/>
    <tripinfo id="370" depart="22.00" departLane="297_4way_148to4way_173_0" departPos="5.10" departSpeed="0.00" departDelay="0.87" arrival="49.00" arrivalLane="42_4way_198to3way_199_0" arrivalPos="85.60" arrivalSpeed="12.55" duration="27.00" routeLength="275.13" waitingTime="0.00" waitingCount="0" stopTime="0.00" timeLoss="5.11" rerouteNo="0" devices="tripinfo_370" vType="DEFAULT_VEHTYPE" speedFactor="0.96" vaporized=""/>
    <tripinfo id="89" depart="6.00" departLane="39_3way_20to3way_19_0" departPos="5.10" departSpeed="0.00" departDelay="0.92" arrival="50.00" arrivalLane="30_3way_16to4way_41_0" arrivalPos="85.60" arrivalSpeed="12.69" duration="44.00" routeLength="475.13" waitingTime="0.00" waitingCount="0" stopTime="0.00" timeLoss="6.42" rerouteNo="0" devices="tripinfo_89" vType="DEFAULT_VEHTYPE" speedFactor="0.93" vaporized=""/>
    <tripinfo id="388" depart="23.00" departLane="362_4way_210to4way_185_0" departPos="5.10" departSpeed="0.00" departDelay="0.84" arrival="50.00" arrivalLane="314_4way_160to4way_159_0" arrivalPos="85.60" arrivalSpeed="12.87" duration="27.00" routeLength="275.13" waitingTime="0.00" waitingCount="0" stopTime="0.00" timeLoss="5.06" rerouteNo="0" devices="tripinfo_388" vType="DEFAULT_VEHTYPE" speedFactor="0.95" vaporized=""/>
    <tripinfo id="637" depart="37.00" departLane="286_4way_142to4way_167_0" departPos="5.10" departSpeed="0.00" departDelay="0.63" arrival="56.00" arrivalLane="330_4way_167to4way_168_0" arrivalPos="85.60" arrivalSpeed="12.87" duration="19.00" routeLength="175.13" waitingTime="0.00" waitingCount="0" stopTime="0.00" timeLoss="4.62" rerouteNo="0" devices="tripinfo_637" vType="DEFAULT_VEHTYPE" speedFactor="0.94" vaporized=""/>
    <tripinfo id="493" depart="29.00" departLane="617_4way_319to4way_344_0" departPos="5.10" departSpeed="0.00" departDelay="0.85" arrival="57.00" arrivalLane="716_4way_369to4way_370_0" arrivalPos="85.60" arrivalSpeed="12.51" duration="28.00" routeLength="275.13" waitingTime="0.00" waitingCount="0" stopTime="0.00" timeLoss="5.62" rerouteNo="0" devices="tripinfo_493" vType="DEFAULT_VEHTYPE" speedFactor="0.94" vaporized=""/>
    <tripinfo id="452" depart="26.00" departLane="923_4way_496to4way_471_0" departPos="5.10" departSpeed="0.00" departDelay="0.19" arrival="58.00" arrivalLane="820_4way_421to4way_420_0" arrivalPos="85.60" arrivalSpeed="14.87" duration="32.00" routeLength="375.13" waitingTime="0.00" waitingCount="0" stopTime="0.00" timeLoss="6.50" rerouteNo="0" devices="tripinfo_452" vType="DEFAULT_VEHTYPE" speedFactor="1.09" vaporized=""/>
    <tripinfo id="692" depart="40.00" departLane="650_4way_361to4way_336_0" departPos="5.10" departSpeed="0.00" departDelay="0.49" arrival="58.00" arrivalLane="647_4way_336to4way_335_0" arrivalPos="85.60" arrivalSpeed="15.39" duration="18.00" routeLength="175.13" waitingTime="0.00" waitingCount="0" stopTime="0.00" timeLoss="5.52" rerouteNo="0" devices="tripinfo_692" vType="DEFAULT_VEHTYPE" speedFactor="1.13" vaporized=""/>
    <tripinfo id="156" depart="9.00" departLane="157_3way_614to3way_615_0" departPos="5.10" departSpeed="0.00" departDelay="0.09" arrival="60.00" arrivalLane="167_3way_619to3way_620_0" arrivalPos="85.60" arrivalSpeed="12.56" duration="51.00" routeLength="580.50" waitingTime="0.00" waitingCount="0" stopTime="0.00" timeLoss="4.99" rerouteNo="0" devices="tripinfo_156" vType="DEFAULT_VEHTYPE" speedFactor="0.91" vaporized=""/>
    <tripinfo id="531" depart="31.00" departLane="176_3way_8to3way_7_0" departPos="5.10" departSpeed="0.00" departDelay="0.68" arrival="61.00" arrivalLane="89_3way_5to3way_4_0" arrivalPos="85.60" arrivalSpeed="14.47" duration="30.00" routeLength="380.50" waitingTime="0.00" waitingCount="0" stopTime="0.00" timeLoss="4.39" rerouteNo="0" devices="tripinfo_531" vType="DEFAULT_VEHTYPE" speedFactor="1.11" vaporized=""/>
    <tripinfo id="482" depart="31.00" departLane="638_4way_330to4way_355_0" departPos="5.10" departSpeed="0.00" departDelay="3.48" arrival="62.00" arrivalLane="787_4way_405to4way_430_0" arrivalPos="85.60" arrivalSpeed="13.86" duration="31.00" routeLength="380.50" waitingTime="0.00" waitingCount="0" stopTime="0.00" timeLoss="3.98" rerouteNo="0" devices="tripinfo_482" vType="DEFAULT_VEHTYPE" speedFactor="1.03" vaporized=""/>
    <tripinfo id="397" depart="23.00" departLane="296_4way_147to4way_172_0" departPos="5.10" departSpeed="0.00" departDelay="0.33" arrival="63.00" arrivalLane="475_4way_247to4way_248_0" arrivalPos="85.60" arrivalSpeed="14.13" duration="40.00" routeLength="475.13" waitingTime="0.00" waitingCount="0" stopTime="0.00" timeLoss="6.62" rerouteNo="0" devices="tripinfo_397" vType="DEFAULT_VEHTYPE" speedFactor="1.05" vaporized=""/>
    <tripinfo id="163" depart="10.00" departLane="860_4way_465to4way_440_0" departPos="5.10" departSpeed="0.00" departDelay="0.69" arrival="68.00" arrivalLane="560_4way_315to4way_290_0" arrivalPos="85.60" arrivalSpeed="11.82" duration="58.00" routeLength="680.50" waitingTime="0.00" waitingCount="0" stopTime="0.00" timeLoss="5.64" rerouteNo="0" devices="tripinfo_163" vType="DEFAULT_VEHTYPE" speedFactor="0.94" vaporized=""/>
    <tripinfo id="357" depart="21.00" departLane="391_4way_227to4way_202_0" departPos="5.10" departSpeed="0.00" departDelay="0.61" arrival="68.00" arrivalLane="185_4way_102to4way_101_0" arrivalPos="85.60" arrivalSpeed="14.34" duration="47.00" routeLength="575.13" waitingTime="0.00" waitingCount="0" stopTime="0.00" timeLoss="5.98" rerouteNo="0" devices="tripinfo_357" vType="DEFAULT_VEHTYPE" speedFactor="1.04" vaporized=""/>
    <tripinfo id="841" depart="49.00" departLane="45_3way_21to3way_20_0" departPos="5.10" departSpeed="0.00" departDelay="0.98" arrival="68.00" arrivalLane="46_3way_20to4way_45_0" arrivalPos="85.60" arrivalSpeed="13.17" duration="19.00" routeLength="175.13" waitingTime="0.00" waitingCount="0" stopTime="0.00" timeLoss="5.28" rerouteNo="0" devices="tripinfo_841" vType="DEFAULT_VEHTYPE" speedFactor="1.02" vaporized=""/>
    <tripinfo id="906" depart="52.00" departLane="1020_4way_547to4way_522_0" departPos="5.10" departSpeed="0.00" departDelay="0.27" arrival="69.00" arrivalLane="971_4way_522to4way_497_0" arrivalPos="85.60" arrivalSpeed="12.56" duration="17.00" routeLength="180.50" waitingTime="0.00" waitingCount="0" stopTime="0.00" timeLoss="3.05" rerouteNo="0" devices="tripinfo_906" vType="DEFAULT_VEHTYPE" speedFactor="0.95" vaporized=""/>
    <tripinfo id="24" depart="2.00" departLane="889_4way_481to4way_456_0" departPos="5.10" departSpeed="0.00" departDelay="0.63" arrival="70.00" arrivalLane="586_4way_306to4way_305_0" arrivalPos="85.60" arrivalSpeed="12.69" duration="68.00" routeLength="775.13" waitingTime="0.00" waitingCount="0" stopTime="0.00" timeLoss="9.35" rerouteNo="0" devices="tripinfo_24" vType="DEFAULT_VEHTYPE" speedFactor="0.97" vaporized=""/>
    <tripinfo id="115" depart="7.00" departLane="881_4way_452to4way_477_0" departPos="5.10" departSpeed="0.00" departDelay="0.43" arrival="70.00" arrivalLane="975_4way_502to4way_503_0" arrivalPos="85.60" arrivalSpeed="6.25" duration="63.00" routeLength="275.13" waitingTime="31.00" waitingCount="1" stopTime="0.00" timeLoss="40.76" rerouteNo="0" devices="tripinfo_115" vType="DEFAULT_VEHTYPE" speedFactor="0.92" vaporized=""/>
    <tripinfo id="213" depart="13.00" departLane="97_3way_474to3way_449_0" departPos="5.10" departSpeed="0.00" departDelay="0.84" arrival="70.00" arrivalLane="98_3way_449to4way_448_0" arrivalPos="85.60" arrivalSpeed="5.11" duration="57.00" routeLength="175.13" waitingTime="32.00" waitingCount="1" stopTime="0.00" timeLoss="42.48" rerouteNo="0" devices="tripinfo_213" vType="DEFAULT_VEHTYPE" speedFactor="0.91" vaporized=""/>
    <tripinfo id="303" depart="18.00" departLane="532_4way_278to4way_303_0" departPos="5.10" departSpeed="0.00" departDelay="0.70" arrival="70.00" arrivalLane="782_4way_403to4way_404_0" arrivalPos="85.60" arrivalSpeed="4.63" duration="52.00" routeLength="575.13" waitingTime="0.00" waitingCount="0" stopTime="0.00" timeLoss="10.86" rerouteNo="0" devices="tripinfo_303" vType="DEFAULT_VEHTYPE" speedFactor="1.02" vaporized=""/>
    <tripinfo id="27" depart="2.00" departLane="434_4way_226to4way_251_0" departPos="5.10" departSpeed="0.00" departDelay="0.46" arrival="72.00" arrivalLane="727_4way_376to4way_377_0" arrivalPos="85.60" arrivalSpeed="7.19" duration="70.00" routeLength="675.13" waitingTime="9.00" waitingCount="1" stopTime="0.00" timeLoss="22.15" rerouteNo="0" devices="tripinfo_27" vType="DEFAULT_VEHTYPE" speedFactor="1.03" vaporized=""/>
    <tripinfo id="779" depart="45.00" departLane="1069_4way_572to4way_547_0" departPos="5.10" departSpeed="0.00" departDelay="0.52" arrival="72.00" arrivalLane="1017_4way_522to4way_521_0" arrivalPos="85.60" arrivalSpeed="13.03" duration="27.00" routeLength="275.13" waitingTime="0.00" waitingCount="0" stopTime="0.00" timeLoss="7.50" rerouteNo="0" devices="tripinfo_779" vType="DEFAULT_VEHTYPE" speedFactor="1.04" vaporized=""/>
    <tripinfo id="318" depart="19.00" departLane="133_3way_603to3way_602_0" departPos="5.10" departSpeed="0.00" departDelay="0.84" arrival="73.00" arrivalLane="113_3way_525to3way_500_0" arrivalPos="85.60" arrivalSpeed="12.91" duration="54.00" routeLength="683.70" waitingTime="0.00" waitingCount="0" stopTime="0.00" timeLoss="5.45" rerouteNo="0" devices="tripinfo_318" vType="DEFAULT_VEHTYPE" speedFactor="1.01" vaporized=""/>
    <tripinfo id="972" depart="57.00" departLane="109_3way_6to3way_5_0" departPos="5.10" departSpeed="0.00" departDelay="1.50" arrival="73.00" arrivalLane="89_3way_5to3way_4_0" arrivalPos="85.60" arrivalSpeed="14.85" duration="16.00" routeLength="180.50" waitingTime="0.00" waitingCount="0" stopTime="0.00" timeLoss="3.74" rerouteNo="0" devices="tripinfo_972" vType="DEFAULT_VEHTYPE" speedFactor="1.12" vaporized=""/>
    <tripinfo id="662" depart="38.00" departLane="427_4way_245to4way_220_0" departPos="5.10" departSpeed="0.00" departDelay="0.20" arrival="74.00" arrivalLane="334_4way_170to4way_169_0" arrivalPos="85.60" arrivalSpeed="12.68" duration="36.00" routeLength="375.13" waitingTime="0.00" waitingCount="0" stopTime="0.00" timeLoss="7.76" rerouteNo="0" devices="tripinfo_662" vType="DEFAULT_VEHTYPE" speedFactor="0.98" vaporized=""/>
    <tripinfo id="1024" depart="65.00" departLane="54_3way_224to4way_223_0" departPos="5.10" departSpeed="0.00" departDelay="6.53" arrival="75.00" arrivalLane="54_3way_224to4way_223_0" arrivalPos="85.60" arrivalSpeed="12.04" duration="10.00" routeLength="80.50" waitingTime="0.00" waitingCount="0" stopTime="0.00" timeLoss="2.88" rerouteNo="0" devices="tripinfo_1024" vType="DEFAULT_VEHTYPE" speedFactor="0.89" vaporized=""/>
    <tripinfo id="68" depart="4.00" departLane="707_4way_389to4way_364_0" departPos="5.10" departSpeed="0.00" departDelay="0.12" arrival="77.00" arrivalLane="602_4way_313to4way_312_0" arrivalPos="85.60" arrivalSpeed="14.84" duration="73.00" routeLength="475.13" waitingTime="27.00" waitingCount="1" stopTime="0.00" timeLoss="40.47" rerouteNo="0" devices="tripinfo_68" vType="DEFAULT_VEHTYPE" speedFactor="1.09" vaporized=""/>
    <tripinfo id="176" depart="11.00" departLane="848_4way_460to4way_435_0" departPos="5.10" departSpeed="0.00" departDelay="0.95" arrival="77.00" arrivalLane="743_4way_384to4way_383_0" arrivalPos="85.60" arrivalSpeed="12.84" duration="66.00" routeLength="475.13" waitingTime="17.00" waitingCount="1" stopTime="0.00" timeLoss="29.90" rerouteNo="0" devices="tripinfo_176" vType="DEFAULT_VEHTYPE" speedFactor="0.97" vaporized=""/>
    <tripinfo id="334" depart="20.00" departLane="325_4way_164to4way_189_0" departPos="5.10" departSpeed="0.00" departDelay="0.93" arrival="77.00" arrivalLane="371_4way_190to4way_191_0" arrivalPos="85.60" arrivalSpeed="16.39" duration="57.00" routeLength="275.13" waitingTime="26.00" waitingCount="1" stopTime="0.00" timeLoss="38.85" rerouteNo="0" devices="tripinfo_334" vType="DEFAULT_VEHTYPE" speedFactor="1.19" vaporized=""/>
    <tripinfo id="479" depart="28.00" departLane="876_4way_46to4way_45_0" departPos="5.10" departSpeed="0.00" departDelay="0.65" arrival="77.00" arrivalLane="877_4way_45to4way_70_0" arrivalPos="85.60" arrivalSpeed="13.22" duration="49.00" routeLength="175.13" waitingTime="25.00" waitingCount="1" stopTime="0.00" timeLoss="35.43" rerouteNo="0" devices="tripinfo_479" vType="DEFAULT_VEHTYPE" speedFactor="1.04" vaporized=""/>
    <tripinfo id="20" depart="2.00" departLane="893_4way_483to4way_458_0" departPos="5.10" departSpeed="0.00" departDelay="0.86" arrival="78.00" arrivalLane="839_4way_432to4way_431_0" arrivalPos="85.60" arrivalSpeed="11.77" duration="76.00" routeLength="375.13" waitingTime="33.00" waitingCount="1" stopTime="0.00" timeLoss="44.44" rerouteNo="0" devices="tripinfo_20" vType="DEFAULT_VEHTYPE" speedFactor="0.89" vaporized=""/>
    <tripinfo id="443" depart="26.00" departLane="1005_4way_516to4way_517_0" departPos="5.10" departSpeed="0.00" departDelay="0.70" arrival="78.00" arrivalLane="961_4way_517to4way_492_0" arrivalPos="85.60" arrivalSpeed="11.28" duration="52.00" routeLength="175.13" waitingTime="29.00" waitingCount="1" stopTime="0.00" timeLoss="36.40" rerouteNo="0" devices="tripinfo_443" vType="DEFAULT_VEHTYPE" speedFactor="0.88" vaporized=""/>
    <tripinfo id="726" depart="42.00" departLane="920_4way_471to4way_470_0" departPos="5.10" departSpeed="0.00" departDelay="0.54" arrival="78.00" arrivalLane="921_4way_470to4way_495_0" arrivalPos="85.60" arrivalSpeed="11.76" duration="36.00" routeLength="175.13" waitingTime="13.00" waitingCount="1" stopTime="0.00" timeLoss="19.81" rerouteNo="0" devices="tripinfo_726" vType="DEFAULT_VEHTYPE" speedFactor="0.85" vaporized=""/>
    <tripinfo id="784" depart="45.00" departLane="844_4way_458to4way_433_0" departPos="5.10" departSpeed="0.00" departDelay="0.23" arrival="78.00" arrivalLane="788_4way_407to4way_406_0" arrivalPos="85.60" arrivalSpeed="13.75" duration="33.00" routeLength="375.13" waitingTime="0.00" waitingCount="0" stopTime="0.00" timeLoss="6.35" rerouteNo="0" devices="tripinfo_784" vType="DEFAULT_VEHTYPE" speedFactor="1.04" vaporized=""/>
    <tripinfo id="187" depart="11.00" departLane="389_4way_201to4way_226_0" departPos="5.10" departSpeed="0.00" departDelay="0.32" arrival="79.00" arrivalLane="580_4way_302to4way_303_0" arrivalPos="85.60" arrivalSpeed="13.77" duration="68.00" routeLength="575.13" waitingTime="14.00" waitingCount="1" stopTime="0.00" timeLoss="26.70" rerouteNo="0" devices="tripinfo_187" vType="DEFAULT_VEHTYPE" speedFactor="1.03" vaporized=""/>
    <tripinfo id="679" depart="39.00" departLane="709_4way_365to4way_390_0" departPos="5.10" departSpeed="0.00" departDelay="0.23" arrival="79.00" arrivalLane="861_4way_441to4way_442_0" arrivalPos="85.60" arrivalSpeed="15.95" duration="40.00" routeLength="475.13" waitingTime="0.00" waitingCount="0" stopTime="0.00" timeLoss="9.14" rerouteNo="0" devices="tripinfo_679" vType="DEFAULT_VEHTYPE" speedFactor="1.16" vaporized=""/>
    <tripinfo id="1015" depart="58.00" departLane="61_3way_50to3way_25_0" departPos="5.10" departSpeed="0.00" departDelay="0.04" arrival="82.00" arrivalLane="2_3way_25to3way_1_0" arrivalPos="188.80" arrivalSpeed="14.31" duration="24.00" routeLength="283.70" waitingTime="0.00" waitingCount="0" stopTime="0.00" timeLoss="3.82" rerouteNo="0" devices="tripinfo_1015" vType="DEFAULT_VEHTYPE" speedFactor="1.06" vaporized=""/>
    <tripinfo id="82" depart="5.00" departLane="244_4way_95to4way_120_0" departPos="5.10" departSpeed="0.00" departDelay="0.32" arrival="85.00" arrivalLane="430_4way_222to4way_223_0" arrivalPos="85.60" arrivalSpeed="13.40" duration="80.00" routeLength="775.13" waitingTime="10.00" waitingCount="1" stopTime="0.00" timeLoss="22.16" rerouteNo="0" devices="tripinfo_82" vType="DEFAULT_VEHTYPE" speedFactor="0.99" vaporized=""/>
    <tripinfo id="262" depart="15.00" departLane="619_4way_57to4way_32_0" departPos="5.10" departSpeed="0.00" departDelay="0.04" arrival="85.00" arrivalLane="109_3way_6to3way_5_0" arrivalPos="85.60" arrivalSpeed="12.54" duration="70.00" routeLength="375.13" waitingTime="30.00" waitingCount="1" stopTime="0.00" timeLoss="39.96" rerouteNo="0" devices="tripinfo_262" vType="DEFAULT_VEHTYPE" speedFactor="0.93" vaporized=""/>
    <tripinfo id="669" depart="39.00" departLane="392_4way_204to4way_203_0" departPos="5.10" departSpeed="0.00" departDelay="0.80" arrival="86.00" arrivalLane="438_4way_228to4way_253_0" arrivalPos="85.60" arrivalSpeed="14.44" duration="47.00" routeLength="275.13" waitingTime="18.00" waitingCount="1" stopTime="0.00" timeLoss="27.88" rerouteNo="0" devices="tripinfo_669" vType="DEFAULT_VEHTYPE" speedFactor="1.08" vaporized=""/>
    <tripinfo id="446" depart="26.00" departLane="366_4way_212to4way_187_0" departPos="5.10" departSpeed="0.00" departDelay="0.53" arrival="87.00" arrivalLane="1183_4way_85to4way_84_0" arrivalPos="85.60" arrivalSpeed="10.24" duration="61.00" routeLength="775.13" waitingTime="0.00" waitingCount="0" stopTime="0.00" timeLoss="8.39" rerouteNo="0" devices="tripinfo_446" vType="DEFAULT_VEHTYPE" speedFactor="1.07" vaporized=""/>
    <tripinfo id="554" depart="32.00" departLane="987_4way_508to4way_509_0" departPos="5.10" departSpeed="0.00" departDelay="0.37" arrival="87.00" arrivalLane="895_4way_484to4way_459_0" arrivalPos="85.60" arrivalSpeed="12.44" duration="55.00" routeLength="275.13" waitingTime="24.00" waitingCount="1" stopTime="0.00" timeLoss="33.73" rerouteNo="0" devices="tripinfo_554" vType="DEFAULT_VEHTYPE" speedFactor="0.97" vaporized=""/>
    <tripinfo id="1340" depart="77.00" departLane="934_4way_504to4way_479_0" departPos="5.10" departSpeed="0.00" departDelay="0.49" arrival="87.00" arrivalLane="934_4way_504to4way_479_0" arrivalPos="85.60" arrivalSpeed="12.83" duration="10.00" routeLength="80.50" waitingTime="0.00" waitingCount="0" stopTime="0.00" timeLoss="3.10" rerouteNo="0" devices="tripinfo_1340" vType="DEFAULT_VEHTYPE" speedFactor="0.95" vaporized=""/>
    <tripinfo id="1377" depart="79.00" departLane="153_3way_612to3way_613_0" departPos="5.10" departSpeed="0.00" departDelay="0.37" arrival="88.00" arrivalLane="153_3way_612to3way_613_0" arrivalPos="85.60" arrivalSpeed="14.01" duration="9.00" routeLength="80.50" waitingTime="0.00" waitingCount="0" stopTime="0.00" timeLoss="3.55" rerouteNo="0" devices="tripinfo_1377" vType="DEFAULT_VEHTYPE" speedFactor="1.09" vaporized=""/>
    <tripinfo id="7" depart="1.00" departLane="159_3way_615to3way_616_0" departPos="5.10" departSpeed="0.00" departDelay="0.60" arrival="90.00" arrivalLane="123_3way_599to3way_574_0" arrivalPos="85.60" arrivalSpeed="12.54" duration="89.00" routeLength="1077.30" waitingTime="0.00" waitingCount="0" stopTime="0.00" timeLoss="7.17" rerouteNo="0" devices="tripinfo_7" vType="DEFAULT_VEHTYPE" speedFactor="0.95" vaporized=""/>
    <tripinfo id="381" depart="22.00" departLane="1091_4way_56to4way_57_0" departPos="5.10" departSpeed="0.00" departDelay="0.24" arrival="90.00" arrivalLane="658_4way_59to4way_34_0" arrivalPos="85.60" arrivalSpeed="17.44" duration="68.00" routeLength="375.13" waitingTime="33.00" waitingCount="1" stopTime="0.00" timeLoss="45.76" rerouteNo="0" devices="tripinfo_381" vType="DEFAULT_VEHTYPE" speedFactor="1.27" vaporized=""/>
    <tripinfo id="128" depart="8.00" departLane="900_4way_462to4way_461_0" departPos="5.10" departSpeed="0.00" departDelay="0.69" arrival="91.00" arrivalLane="996_4way_511to4way_536_0" arrivalPos="85.60" arrivalSpeed="13.97" duration="83.00" routeLength="375.13" waitingTime="47.00" waitingCount="1" stopTime="0.00" timeLoss="56.14" rerouteNo="0" devices="tripinfo_128" vType="DEFAULT_VEHTYPE" speedFactor="1.02" vaporized=""/>
    <tripinfo id="350" depart="20.00" departLane="536_4way_28to4way_53_0" departPos="5.10" departSpeed="0.00" departDelay="0.01" arrival="91.00" arrivalLane="1091_4way_56to4way_57_0" arrivalPos="85.60" arrivalSpeed="13.57" duration="71.00" routeLength="475.13" waitingTime="26.00" waitingCount="1" stopTime="0.00" timeLoss="37.16" rerouteNo="0" devices="tripinfo_350" vType="DEFAULT_VEHTYPE" speedFactor="1.07" vaporized=""/>
    <tripinfo id="455" depart="26.00" departLane="75_3way_349to3way_324_0" departPos="5.10" departSpeed="0.00" departDelay="0.02" arrival="94.00" arrivalLane="383_4way_197to4way_196_0" arrivalPos="85.60" arrivalSpeed="14.76" duration="68.00" routeLength="875.13" waitingTime="0.00" waitingCount="0" stopTime="0.00" timeLoss="8.73" rerouteNo="0" devices="tripinfo_455" vType="DEFAULT_VEHTYPE" speedFactor="1.08" vaporized=""/>
    <tripinfo id="361" depart="21.00" departLane="246_4way_146to4way_121_0" departPos="5.10" departSpeed="0.00" departDelay="0.39" arrival="95.00" arrivalLane="37_3way_19to3way_18_0" arrivalPos="85.60" arrivalSpeed="10.98" duration="74.00" routeLength="775.13" waitingTime="0.00" waitingCount="0" stopTime="0.00" timeLoss="8.44" rerouteNo="0" devices="tripinfo_361" vType="DEFAULT_VEHTYPE" speedFactor="0.87" vaporized=""/>
    <tripinfo id="298" depart="18.00" departLane="843_4way_434to4way_433_0" departPos="5.10" departSpeed="0.00" departDelay="0.98" arrival="96.00" arrivalLane="840_4way_431to4way_456_0" arrivalPos="85.60" arrivalSpeed="12.44" duration="78.00" routeLength="375.13" waitingTime="36.00" waitingCount="1" stopTime="0.00" timeLoss="47.33" rerouteNo="0" devices="tripinfo_298" vType="DEFAULT_VEHTYPE" speedFactor="0.92" vaporized=""/>
    <tripinfo id="1082" depart="62.00" departLane="403_4way_233to4way_208_0" departPos="5.10" departSpeed="0.00" departDelay="0.22" arrival="97.00" arrivalLane="268_4way_158to4way_133_0" arrivalPos="85.60" arrivalSpeed="13.62" duration="35.00" routeLength="380.50" waitingTime="0.00" waitingCount="0" stopTime="0.00" timeLoss="8.39" rerouteNo="0" devices="tripinfo_1082" vType="DEFAULT_VEHTYPE" speedFactor="1.05" vaporized=""/>
    <tripinfo id="229" depart="14.00" departLane="921_4way_495to4way_470_0" departPos="5.10" departSpeed="0.00" departDelay="0.92" arrival="99.00" arrivalLane="861_4way_442to4way_441_0" arrivalPos="85.60" arrivalSpeed="9.31" duration="85.00" routeLength="575.13" waitingTime="17.00" waitingCount="1" stopTime="0.00" timeLoss="28.11" rerouteNo="0" devices="tripinfo_229" vType="DEFAULT_VEHTYPE" speedFactor="0.75" vaporized=""/>
    <tripinfo id="1088" depart="63.00" departLane="292_4way_145to4way_170_0" departPos="5.10" departSpeed="0.00" departDelay="0.87" arrival="101.00" arrivalLane="385_4way_197to4way_198_0" arrivalPos="85.60" arrivalSpeed="14.89" duration="38.00" routeLength="475.13" waitingTime="0.00" waitingCount="0" stopTime="0.00" timeLoss="6.60" rerouteNo="0" devices="tripinfo_1088" vType="DEFAULT_VEHTYPE" speedFactor="1.11" vaporized=""/>
    <tripinfo id="837" depart="49.00" departLane="1193_4way_94to4way_95_0" departPos="5.10" departSpeed="0.00" departDelay="1.21" arrival="103.00" arrivalLane="919_4way_72to4way_47_0" arrivalPos="85.60" arrivalSpeed="13.17" duration="54.00" routeLength="475.13" waitingTime="7.00" waitingCount="1" stopTime="0.00" timeLoss="16.95" rerouteNo="0" devices="tripinfo_837" vType="DEFAULT_VEHTYPE" speedFactor="0.95" vaporized=""/>
    <tripinfo id="162" depart="10.00" departLane="360_4way_209to4way_184_0" departPos="5.10" departSpeed="0.00" departDelay="0.75" arrival="107.00" arrivalLane="1052_4way_55to4way_54_0" arrivalPos="85.60" arrivalSpeed="13.15" duration="97.00" routeLength="1075.13" waitingTime="0.00" waitingCount="0" stopTime="0.00" timeLoss="15.31" rerouteNo="0" devices="tripinfo_162" vType="DEFAULT_VEHTYPE" speedFactor="0.96" vaporized=""/>
    <tripinfo id="1286" depart="75.00" departLane="170_3way_620to4way_595_0" departPos="5.10" departSpeed="0.00" departDelay="1.57" arrival="107.00" arrivalLane="1016_4way_545to4way_520_0" arrivalPos="85.60" arrivalSpeed="13.33" duration="32.00" routeLength="380.50" waitingTime="0.00" waitingCount="0" stopTime="0.00" timeLoss="4.09" rerouteNo="0" devices="tripinfo_1286" vType="DEFAULT_VEHTYPE" speedFactor="1.01" vaporized=""/>
    <tripinfo id="503" depart="30.00" departLane="39_3way_20to3way_19_0" departPos="5.10" departSpeed="0.00" departDelay="1.28" arrival="108.00" arrivalLane="11_3way_11to4way_36_0" arrivalPos="85.60" arrivalSpeed="13.99" duration="78.00" routeLength="975.13" waitingTime="0.00" waitingCount="0" stopTime="0.00" timeLoss="9.54" rerouteNo="0" devices="tripinfo_503" vType="DEFAULT_VEHTYPE" speedFactor="1.04" vaporized=""/>
    <tripinfo id="533" depart="36.00" departLane="1174_4way_73to4way_98_0" departPos="5.10" departSpeed="0.00" departDelay="5.57" arrival="114.00" arrivalLane="53_3way_224to3way_249_0" arrivalPos="85.60" arrivalSpeed="14.37" duration="78.00" routeLength="774.92" waitingTime="11.00" waitingCount="1" stopTime="0.00" timeLoss="25.17" rerouteNo="0" devices="tripinfo_533" vType="DEFAULT_VEHTYPE" speedFactor="1.09" vaporized=""/>
    <tripinfo id="408" depart="24.00" departLane="1034_4way_532to4way_531_0" departPos="5.10" departSpeed="0.00" departDelay="0.70" arrival="121.00" arrivalLane="1023_4way_526to4way_551_0" arrivalPos="85.60" arrivalSpeed="12.00" duration="97.00" routeLength="675.13" waitingTime="31.00" waitingCount="1" stopTime="0.00" timeLoss="43.27" rerouteNo="0" devices="tripinfo_408" vType="DEFAULT_VEHTYPE" speedFactor="0.92" vaporized=""/>
    <tripinfo id="1988" depart="114.00" departLane="100_4way_451to3way_450_0" departPos="5.10" departSpeed="0.00" departDelay="0.48" arrival="123.00" arrivalLane="100_4way_451to3way_450_0" arrivalPos="85.60" arrivalSpeed="14.56" duration="9.00" routeLength="80.50" waitingTime="0.00" waitingCount="0" stopTime="0.00" timeLoss="3.32" rerouteNo="0" devices="tripinfo_1988" vType="DEFAULT_VEHTYPE" speedFactor="1.07" vaporized=""/>