<?xml version="1.0" encoding="UTF-8"?>

<!-- generated on 2023-02-25 01:29:37 by Eclipse SUMO sumo Version 1.12.0
<configuration xmlns:xsi="http://www.w3.org/2001/XMLSchema-instance" xsi:noNamespaceSchemaLocation="http://sumo.dlr.de/xsd/sumoConfiguration.xsd">

    <input>
        <net-file value="../../data_generation/sq.net.xml"/>
        <route-files value="../../data_generation/sq.rou.xml"/>
    </input>

    <output>
        <tripinfo-output value="tripinfo.xml"/>
        <statistic-output value="statistic.xml"/>
    </output>

    <time>
        <begin value="0"/>
        <end value="3600"/>
    </time>

    <processing>
        <time-to-teleport value="-1"/>
    </processing>

    <traci_server>
        <remote-port value="36027"/>
    </traci_server>

    <random_number>
        <seed value="1395"/>
    </random_number>

    <gui_only>
        <gui-settings-file value="../../data_generation/view_HY_0402.xml"/>
    </gui_only>

</configuration>
-->

<tripinfos xmlns:xsi="http://www.w3.org/2001/XMLSchema-instance" xsi:noNamespaceSchemaLocation="http://sumo.dlr.de/xsd/tripinfo_file.xsd">
    <tripinfo id="1" depart="1.00" departLane="9_3way_B0to4way_B1_0" departPos="5.10" departSpeed="0.00" departDelay="0.58" arrival="18.00" arrivalLane="9_3way_B0to4way_B1_0" arrivalPos="185.60" arrivalSpeed="13.28" duration="17.00" routeLength="180.50" waitingTime="0.00" waitingCount="0" stopTime="0.00" timeLoss="3.90" rerouteNo="0" devices="tripinfo_1" vType="DEFAULT_VEHTYPE" speedFactor="1.04" vaporized=""/>
    <tripinfo id="16" depart="7.00" departLane="3_4way_B1to3way_A1_0" departPos="5.10" departSpeed="0.00" departDelay="0.28" arrival="26.00" arrivalLane="3_4way_B1to3way_A1_0" arrivalPos="185.60" arrivalSpeed="11.51" duration="19.00" routeLength="180.50" waitingTime="0.00" waitingCount="0" stopTime="0.00" timeLoss="4.29" rerouteNo="0" devices="tripinfo_16" vType="DEFAULT_VEHTYPE" speedFactor="0.90" vaporized=""/>
    <tripinfo id="21" depart="9.00" departLane="22_3way_E2to3way_E3_0" departPos="5.10" departSpeed="0.00" departDelay="0.18" arrival="28.00" arrivalLane="22_3way_E2to3way_E3_0" arrivalPos="185.60" arrivalSpeed="10.67" duration="19.00" routeLength="180.50" waitingTime="0.00" waitingCount="0" stopTime="0.00" timeLoss="3.17" rerouteNo="0" devices="tripinfo_21" vType="DEFAULT_VEHTYPE" speedFactor="0.82" vaporized=""/>
    <tripinfo id="24" depart="11.00" departLane="10_3way_B4to3way_C4_0" departPos="5.10" departSpeed="0.00" departDelay="0.92" arrival="28.00" arrivalLane="10_3way_B4to3way_C4_0" arrivalPos="185.60" arrivalSpeed="12.30" duration="17.00" routeLength="180.50" waitingTime="0.00" waitingCount="0" stopTime="0.00" timeLoss="2.99" rerouteNo="0" devices="tripinfo_24" vType="DEFAULT_VEHTYPE" speedFactor="0.97" vaporized=""/>
    <tripinfo id="0" depart="0.00" departLane="25_4way_B2to4way_B1_0" departPos="5.10" departSpeed="0.00" departDelay="0.00" arrival="31.00" arrivalLane="9_4way_B1to3way_B0_0" arrivalPos="185.60" arrivalSpeed="12.98" duration="31.00" routeLength="380.50" waitingTime="0.00" waitingCount="0" stopTime="0.00" timeLoss="3.63" rerouteNo="0" devices="tripinfo_0" vType="DEFAULT_VEHTYPE" speedFactor="1.00" vaporized=""/>
    <tripinfo id="8" depart="5.00" departLane="27_4way_B3to4way_B2_0" departPos="5.10" departSpeed="0.00" departDelay="1.64" arrival="39.00" arrivalLane="28_4way_B2to4way_C2_0" arrivalPos="185.60" arrivalSpeed="13.25" duration="34.00" routeLength="375.13" waitingTime="0.00" waitingCount="0" stopTime="0.00" timeLoss="5.74" rerouteNo="0" devices="tripinfo_8" vType="DEFAULT_VEHTYPE" speedFactor="0.98" vaporized=""/>
    <tripinfo id="63" depart="27.00" departLane="9_4way_B1to3way_B0_0" departPos="5.10" departSpeed="0.00" departDelay="0.54" arrival="44.00" arrivalLane="9_4way_B1to3way_B0_0" arrivalPos="185.60" arrivalSpeed="12.28" duration="17.00" routeLength="180.50" waitingTime="0.00" waitingCount="0" stopTime="0.00" timeLoss="3.27" rerouteNo="0" devices="tripinfo_63" vType="DEFAULT_VEHTYPE" speedFactor="0.95" vaporized=""/>
    <tripinfo id="64" depart="27.00" departLane="26_4way_C1to4way_B1_0" departPos="5.10" departSpeed="0.00" departDelay="0.12" arrival="44.00" arrivalLane="26_4way_C1to4way_B1_0" arrivalPos="185.60" arrivalSpeed="12.34" duration="17.00" routeLength="180.50" waitingTime="0.00" waitingCount="0" stopTime="0.00" timeLoss="3.31" rerouteNo="0" devices="tripinfo_64" vType="DEFAULT_VEHTYPE" speedFactor="0.96" vaporized=""/>
    <tripinfo id="71" depart="31.00" departLane="11_4way_B3to3way_B4_0" departPos="5.10" departSpeed="0.00" departDelay="1.18" arrival="47.00" arrivalLane="11_4way_B3to3way_B4_0" arrivalPos="185.60" arrivalSpeed="14.50" duration="16.00" routeLength="180.50" waitingTime="0.00" waitingCount="0" stopTime="0.00" timeLoss="3.69" rerouteNo="0" devices="tripinfo_71" vType="DEFAULT_VEHTYPE" speedFactor="1.13" vaporized=""/>
    <tripinfo id="27" depart="15.00" departLane="7_3way_A3to4way_B3_0" departPos="5.10" departSpeed="0.00" departDelay="3.66" arrival="49.00" arrivalLane="11_4way_B3to3way_B4_0" arrivalPos="185.60" arrivalSpeed="13.57" duration="34.00" routeLength="375.13" waitingTime="0.00" waitingCount="0" stopTime="0.00" timeLoss="7.06" rerouteNo="0" devices="tripinfo_27" vType="DEFAULT_VEHTYPE" speedFactor="1.03" vaporized=""/>
    <tripinfo id="76" depart="32.00" departLane="17_3way_D0to4way_D1_0" departPos="5.10" departSpeed="0.00" departDelay="0.08" arrival="51.00" arrivalLane="17_3way_D0to4way_D1_0" arrivalPos="185.60" arrivalSpeed="12.14" duration="19.00" routeLength="180.50" waitingTime="0.00" waitingCount="0" stopTime="0.00" timeLoss="3.60" rerouteNo="0" devices="tripinfo_76" vType="DEFAULT_VEHTYPE" speedFactor="0.90" vaporized=""/>
    <tripinfo id="78" depart="37.00" departLane="36_4way_D2to4way_D3_0" departPos="5.10" departSpeed="0.00" departDelay="4.24" arrival="54.00" arrivalLane="36_4way_D2to4way_D3_0" arrivalPos="185.60" arrivalSpeed="13.30" duration="17.00" routeLength="180.50" waitingTime="0.00" waitingCount="0" stopTime="0.00" timeLoss="4.10" rerouteNo="0" devices="tripinfo_78" vType="DEFAULT_VEHTYPE" speedFactor="1.03" vaporized=""/>
    <tripinfo id="50" depart="21.00" departLane="19_4way_D3to3way_D4_0" departPos="5.10" departSpeed="0.00" departDelay="0.00" arrival="55.00" arrivalLane="14_3way_D4to3way_C4_0" arrivalPos="185.60" arrivalSpeed="13.32" duration="34.00" routeLength="375.13" waitingTime="0.00" waitingCount="0" stopTime="0.00" timeLoss="6.33" rerouteNo="0" devices="tripinfo_50" vType="DEFAULT_VEHTYPE" speedFactor="1.01" vaporized=""/>
    <tripinfo id="77" depart="37.00" departLane="27_4way_B3to4way_B2_0" departPos="5.10" departSpeed="0.00" departDelay="4.66" arrival="55.00" arrivalLane="27_4way_B3to4way_B2_0" arrivalPos="185.60" arrivalSpeed="13.09" duration="18.00" routeLength="180.50" waitingTime="0.00" waitingCount="0" stopTime="0.00" timeLoss="4.04" rerouteNo="0" devices="tripinfo_77" vType="DEFAULT_VEHTYPE" speedFactor="0.99" vaporized=""/>
    <tripinfo id="94" depart="42.00" departLane="14_3way_D4to3way_C4_0" departPos="5.10" departSpeed="0.00" departDelay="2.52" arrival="58.00" arrivalLane="14_3way_D4to3way_C4_0" arrivalPos="185.60" arrivalSpeed="14.68" duration="16.00" routeLength="180.50" waitingTime="0.00" waitingCount="0" stopTime="0.00" timeLoss="3.93" rerouteNo="0" devices="tripinfo_94" vType="DEFAULT_VEHTYPE" speedFactor="1.08" vaporized=""/>
    <tripinfo id="68" depart="29.00" departLane="35_4way_D1to4way_D2_0" departPos="5.10" departSpeed="0.00" departDelay="0.44" arrival="61.00" arrivalLane="33_4way_D2to4way_C2_0" arrivalPos="185.60" arrivalSpeed="15.02" duration="32.00" routeLength="375.13" waitingTime="0.00" waitingCount="0" stopTime="0.00" timeLoss="6.20" rerouteNo="0" devices="tripinfo_68" vType="DEFAULT_VEHTYPE" speedFactor="1.09" vaporized=""/>
    <tripinfo id="98" depart="42.00" departLane="1_3way_A2to3way_A1_0" departPos="5.10" departSpeed="0.00" departDelay="0.84" arrival="61.00" arrivalLane="1_3way_A2to3way_A1_0" arrivalPos="185.60" arrivalSpeed="11.50" duration="19.00" routeLength="180.50" waitingTime="0.00" waitingCount="0" stopTime="0.00" timeLoss="3.70" rerouteNo="0" devices="tripinfo_98" vType="DEFAULT_VEHTYPE" speedFactor="0.88" vaporized=""/>
    <tripinfo id="99" depart="43.00" departLane="17_3way_D0to4way_D1_0" departPos="5.10" departSpeed="0.00" departDelay="1.42" arrival="61.00" arrivalLane="17_3way_D0to4way_D1_0" arrivalPos="185.60" arrivalSpeed="12.33" duration="18.00" routeLength="180.50" waitingTime="0.00" waitingCount="0" stopTime="0.00" timeLoss="3.88" rerouteNo="0" devices="tripinfo_99" vType="DEFAULT_VEHTYPE" speedFactor="0.97" vaporized=""/>
    <tripinfo id="65" depart="29.00" departLane="17_3way_D0to4way_D1_0" departPos="5.10" departSpeed="0.00" departDelay="1.70" arrival="62.00" arrivalLane="31_4way_D1to4way_C1_0" arrivalPos="185.60" arrivalSpeed="15.33" duration="33.00" routeLength="375.13" waitingTime="0.00" waitingCount="0" stopTime="0.00" timeLoss="9.10" rerouteNo="0" devices="tripinfo_65" vType="DEFAULT_VEHTYPE" speedFactor="1.20" vaporized=""/>
    <tripinfo id="32" depart="14.00" departLane="17_3way_D0to4way_D1_0" departPos="5.10" departSpeed="0.00" departDelay="0.56" arrival="63.00" arrivalLane="36_4way_D2to4way_D3_0" arrivalPos="185.60" arrivalSpeed="12.86" duration="49.00" routeLength="580.50" waitingTime="0.00" waitingCount="0" stopTime="0.00" timeLoss="6.97" rerouteNo="0" devices="tripinfo_32" vType="DEFAULT_VEHTYPE" speedFactor="1.00" vaporized=""/>
    <tripinfo id="51" depart="22.00" departLane="35_4way_D2to4way_D1_0" departPos="5.10" departSpeed="0.00" departDelay="0.58" arrival="64.00" arrivalLane="17_4way_D1to3way_D0_0" arrivalPos="185.60" arrivalSpeed="9.12" duration="42.00" routeLength="380.50" waitingTime="0.00" waitingCount="0" stopTime="0.00" timeLoss="4.75" rerouteNo="0" devices="tripinfo_51" vType="DEFAULT_VEHTYPE" speedFactor="0.74" vaporized=""/>
    <tripinfo id="116" depart="49.00" departLane="7_3way_A3to4way_B3_0" departPos="5.10" departSpeed="0.00" departDelay="0.28" arrival="66.00" arrivalLane="7_3way_A3to4way_B3_0" arrivalPos="185.60" arrivalSpeed="13.43" duration="17.00" routeLength="180.50" waitingTime="0.00" waitingCount="0" stopTime="0.00" timeLoss="3.59" rerouteNo="0" devices="tripinfo_116" vType="DEFAULT_VEHTYPE" speedFactor="0.99" vaporized=""/>
    <tripinfo id="69" depart="29.00" departLane="29_4way_C3to4way_B3_0" departPos="5.10" departSpeed="0.00" departDelay="0.02" arrival="67.00" arrivalLane="7_4way_B3to3way_A3_0" arrivalPos="185.60" arrivalSpeed="10.58" duration="38.00" routeLength="380.50" waitingTime="0.00" waitingCount="0" stopTime="0.00" timeLoss="4.48" rerouteNo="0" devices="tripinfo_69" vType="DEFAULT_VEHTYPE" speedFactor="0.82" vaporized=""/>
    <tripinfo id="42" depart="18.00" departLane="35_4way_D1to4way_D2_0" departPos="5.10" departSpeed="0.00" departDelay="0.36" arrival="68.00" arrivalLane="24_4way_D3to3way_E3_0" arrivalPos="185.60" arrivalSpeed="12.77" duration="50.00" routeLength="580.30" waitingTime="0.00" waitingCount="0" stopTime="0.00" timeLoss="6.88" rerouteNo="0" devices="tripinfo_42" vType="DEFAULT_VEHTYPE" speedFactor="0.99" vaporized=""/>
    <tripinfo id="13" depart="6.00" departLane="16_3way_E1to3way_D0_0" departPos="5.10" departSpeed="0.00" departDelay="0.54" arrival="70.00" arrivalLane="12_3way_D0to3way_C0_0" arrivalPos="185.60" arrivalSpeed="5.47" duration="64.00" routeLength="583.70" waitingTime="11.00" waitingCount="1" stopTime="0.00" timeLoss="20.90" rerouteNo="0" devices="tripinfo_13" vType="DEFAULT_VEHTYPE" speedFactor="0.98" vaporized=""/>
    <tripinfo id="17" depart="8.00" departLane="35_4way_D1to4way_D2_0" departPos="5.10" departSpeed="0.00" departDelay="0.86" arrival="70.00" arrivalLane="34_4way_D3to4way_C3_0" arrivalPos="185.60" arrivalSpeed="6.35" duration="62.00" routeLength="575.13" waitingTime="9.00" waitingCount="1" stopTime="0.00" timeLoss="21.21" rerouteNo="0" devices="tripinfo_17" vType="DEFAULT_VEHTYPE" speedFactor="1.04" vaporized=""/>
    <tripinfo id="45" depart="19.00" departLane="3_3way_A1to4way_B1_0" departPos="5.10" departSpeed="0.00" departDelay="0.10" arrival="70.00" arrivalLane="3_3way_A1to4way_B1_0" arrivalPos="185.60" arrivalSpeed="6.07" duration="51.00" routeLength="180.50" waitingTime="30.00" waitingCount="1" stopTime="0.00" timeLoss="37.86" rerouteNo="0" devices="tripinfo_45" vType="DEFAULT_VEHTYPE" speedFactor="1.00" vaporized=""/>
    <tripinfo id="89" depart="39.00" departLane="9_4way_B1to3way_B0_0" departPos="5.10" departSpeed="0.00" departDelay="1.62" arrival="70.00" arrivalLane="9_4way_B1to3way_B0_0" arrivalPos="185.60" arrivalSpeed="5.56" duration="31.00" routeLength="180.50" waitingTime="9.00" waitingCount="1" stopTime="0.00" timeLoss="16.90" rerouteNo="0" devices="tripinfo_89" vType="DEFAULT_VEHTYPE" speedFactor="0.93" vaporized=""/>
    <tripinfo id="92" depart="39.00" departLane="29_4way_C3to4way_B3_0" departPos="5.10" departSpeed="0.00" departDelay="0.36" arrival="70.00" arrivalLane="11_4way_B3to3way_B4_0" arrivalPos="185.60" arrivalSpeed="15.28" duration="31.00" routeLength="380.30" waitingTime="0.00" waitingCount="0" stopTime="0.00" timeLoss="5.58" rerouteNo="0" devices="tripinfo_92" vType="DEFAULT_VEHTYPE" speedFactor="1.13" vaporized=""/>
    <tripinfo id="122" depart="55.00" departLane="28_4way_B2to4way_C2_0" departPos="5.10" departSpeed="0.00" departDelay="3.76" arrival="70.00" arrivalLane="28_4way_B2to4way_C2_0" arrivalPos="185.60" arrivalSpeed="16.54" duration="15.00" routeLength="180.50" waitingTime="0.00" waitingCount="0" stopTime="0.00" timeLoss="4.21" rerouteNo="0" devices="tripinfo_122" vType="DEFAULT_VEHTYPE" speedFactor="1.20" vaporized=""/>
    <tripinfo id="70" depart="30.00" departLane="36_4way_D3to4way_D2_0" departPos="5.10" departSpeed="0.00" departDelay="0.60" arrival="71.00" arrivalLane="35_4way_D2to4way_D1_0" arrivalPos="185.60" arrivalSpeed="9.15" duration="41.00" routeLength="380.50" waitingTime="0.00" waitingCount="0" stopTime="0.00" timeLoss="4.19" rerouteNo="0" devices="tripinfo_70" vType="DEFAULT_VEHTYPE" speedFactor="0.75" vaporized=""/>
    <tripinfo id="26" depart="11.00" departLane="19_3way_D4to4way_D3_0" departPos="5.10" departSpeed="0.00" departDelay="0.08" arrival="72.00" arrivalLane="17_4way_D1to3way_D0_0" arrivalPos="185.60" arrivalSpeed="13.30" duration="61.00" routeLength="780.50" waitingTime="0.00" waitingCount="0" stopTime="0.00" timeLoss="5.96" rerouteNo="0" devices="tripinfo_26" vType="DEFAULT_VEHTYPE" speedFactor="1.03" vaporized=""/>
    <tripinfo id="111" depart="47.00" departLane="14_3way_C4to3way_D4_0" departPos="5.10" departSpeed="0.00" departDelay="0.38" arrival="72.00" arrivalLane="14_3way_C4to3way_D4_0" arrivalPos="185.60" arrivalSpeed="7.29" duration="25.00" routeLength="180.50" waitingTime="1.00" waitingCount="1" stopTime="0.00" timeLoss="9.49" rerouteNo="0" devices="tripinfo_111" vType="DEFAULT_VEHTYPE" speedFactor="0.84" vaporized=""/>
    <tripinfo id="124" depart="53.00" departLane="9_4way_B1to3way_B0_0" departPos="5.10" departSpeed="0.00" departDelay="0.92" arrival="72.00" arrivalLane="9_4way_B1to3way_B0_0" arrivalPos="185.60" arrivalSpeed="7.70" duration="19.00" routeLength="180.50" waitingTime="0.00" waitingCount="0" stopTime="0.00" timeLoss="7.20" rerouteNo="0" devices="tripinfo_124" vType="DEFAULT_VEHTYPE" speedFactor="1.11" vaporized=""/>
    <tripinfo id="47" depart="20.00" departLane="19_3way_D4to4way_D3_0" departPos="5.10" departSpeed="0.00" departDelay="0.26" arrival="73.00" arrivalLane="35_4way_D2to4way_D1_0" arrivalPos="185.60" arrivalSpeed="11.99" duration="53.00" routeLength="580.50" waitingTime="0.00" waitingCount="0" stopTime="0.00" timeLoss="5.92" rerouteNo="0" devices="tripinfo_47" vType="DEFAULT_VEHTYPE" speedFactor="0.90" vaporized=""/>
    <tripinfo id="133" depart="56.00" departLane="15_4way_C3to3way_C4_0" departPos="5.10" departSpeed="0.00" departDelay="0.14" arrival="73.00" arrivalLane="15_4way_C3to3way_C4_0" arrivalPos="185.60" arrivalSpeed="12.74" duration="17.00" routeLength="180.50" waitingTime="0.00" waitingCount="0" stopTime="0.00" timeLoss="3.40" rerouteNo="0" devices="tripinfo_133" vType="DEFAULT_VEHTYPE" speedFactor="1.01" vaporized=""/>
    <tripinfo id="134" depart="57.00" departLane="32_4way_C2to4way_C3_0" departPos="5.10" departSpeed="0.00" departDelay="0.72" arrival="74.00" arrivalLane="32_4way_C2to4way_C3_0" arrivalPos="185.60" arrivalSpeed="13.27" duration="17.00" routeLength="180.50" waitingTime="0.00" waitingCount="0" stopTime="0.00" timeLoss="3.56" rerouteNo="0" devices="tripinfo_134" vType="DEFAULT_VEHTYPE" speedFactor="1.00" vaporized=""/>
    <tripinfo id="61" depart="26.00" departLane="17_3way_D0to4way_D1_0" departPos="5.10" departSpeed="0.00" departDelay="0.38" arrival="75.00" arrivalLane="26_4way_C1to4way_B1_0" arrivalPos="185.60" arrivalSpeed="13.54" duration="49.00" routeLength="575.13" waitingTime="0.00" waitingCount="0" stopTime="0.00" timeLoss="7.20" rerouteNo="0" devices="tripinfo_61" vType="DEFAULT_VEHTYPE" speedFactor="1.01" vaporized=""/>
    <tripinfo id="18" depart="8.00" departLane="16_3way_D0to3way_E1_0" departPos="5.10" departSpeed="0.00" departDelay="0.44" arrival="77.00" arrivalLane="20_3way_E1to3way_E2_0" arrivalPos="185.60" arrivalSpeed="5.98" duration="69.00" routeLength="577.30" waitingTime="12.00" waitingCount="1" stopTime="0.00" timeLoss="25.34" rerouteNo="0" devices="tripinfo_18" vType="DEFAULT_VEHTYPE" speedFactor="0.96" vaporized=""/>
    <tripinfo id="140" depart="60.00" departLane="13_4way_C1to3way_C0_0" departPos="5.10" departSpeed="0.00" departDelay="1.20" arrival="78.00" arrivalLane="13_4way_C1to3way_C0_0" arrivalPos="185.60" arrivalSpeed="12.69" duration="18.00" routeLength="180.50" waitingTime="0.00" waitingCount="0" stopTime="0.00" timeLoss="3.40" rerouteNo="0" devices="tripinfo_140" vType="DEFAULT_VEHTYPE" speedFactor="0.93" vaporized=""/>
    <tripinfo id="144" depart="61.00" departLane="7_4way_B3to3way_A3_0" departPos="5.10" departSpeed="0.00" departDelay="0.52" arrival="78.00" arrivalLane="7_4way_B3to3way_A3_0" arrivalPos="185.60" arrivalSpeed="14.86" duration="17.00" routeLength="180.50" waitingTime="0.00" waitingCount="0" stopTime="0.00" timeLoss="4.08" rerouteNo="0" devices="tripinfo_144" vType="DEFAULT_VEHTYPE" speedFactor="1.07" vaporized=""/>
    <tripinfo id="145" depart="61.00" departLane="32_4way_C2to4way_C3_0" departPos="5.10" departSpeed="0.00" departDelay="0.10" arrival="78.00" arrivalLane="32_4way_C2to4way_C3_0" arrivalPos="185.60" arrivalSpeed="12.17" duration="17.00" routeLength="180.50" waitingTime="0.00" waitingCount="0" stopTime="0.00" timeLoss="3.22" rerouteNo="0" devices="tripinfo_145" vType="DEFAULT_VEHTYPE" speedFactor="0.96" vaporized=""/>
    <tripinfo id="148" depart="63.00" departLane="4_3way_A2to3way_A3_0" departPos="5.10" departSpeed="0.00" departDelay="0.84" arrival="80.00" arrivalLane="4_3way_A2to3way_A3_0" arrivalPos="185.60" arrivalSpeed="13.90" duration="17.00" routeLength="180.50" waitingTime="0.00" waitingCount="0" stopTime="0.00" timeLoss="4.06" rerouteNo="0" devices="tripinfo_148" vType="DEFAULT_VEHTYPE" speedFactor="1.07" vaporized=""/>
    <tripinfo id="12" depart="6.00" departLane="15_4way_C3to3way_C4_0" departPos="5.10" departSpeed="0.00" departDelay="0.96" arrival="82.00" arrivalLane="10_3way_C4to3way_B4_0" arrivalPos="185.60" arrivalSpeed="14.86" duration="76.00" routeLength="375.13" waitingTime="42.00" waitingCount="1" stopTime="0.00" timeLoss="52.13" rerouteNo="0" devices="tripinfo_12" vType="DEFAULT_VEHTYPE" speedFactor="1.16" vaporized=""/>
    <tripinfo id="103" depart="44.00" departLane="5_4way_B2to3way_A2_0" departPos="5.10" departSpeed="0.00" departDelay="0.74" arrival="83.00" arrivalLane="1_3way_A2to3way_A1_0" arrivalPos="185.60" arrivalSpeed="15.72" duration="39.00" routeLength="375.13" waitingTime="5.00" waitingCount="1" stopTime="0.00" timeLoss="14.71" rerouteNo="0" devices="tripinfo_103" vType="DEFAULT_VEHTYPE" speedFactor="1.15" vaporized=""/>
    <tripinfo id="110" depart="50.00" departLane="28_4way_B2to4way_C2_0" departPos="5.10" departSpeed="0.00" departDelay="3.80" arrival="83.00" arrivalLane="32_4way_C2to4way_C3_0" arrivalPos="185.60" arrivalSpeed="13.55" duration="33.00" routeLength="375.13" waitingTime="0.00" waitingCount="0" stopTime="0.00" timeLoss="6.33" rerouteNo="0" devices="tripinfo_110" vType="DEFAULT_VEHTYPE" speedFactor="1.05" vaporized=""/>
    <tripinfo id="15" depart="7.00" departLane="8_3way_B0to3way_C0_0" departPos="5.10" departSpeed="0.00" departDelay="0.70" arrival="84.00" arrivalLane="12_3way_C0to3way_D0_0" arrivalPos="185.60" arrivalSpeed="14.49" duration="77.00" routeLength="380.50" waitingTime="41.00" waitingCount="1" stopTime="0.00" timeLoss="50.10" rerouteNo="0" devices="tripinfo_15" vType="DEFAULT_VEHTYPE" speedFactor="1.05" vaporized=""/>
    <tripinfo id="34" depart="15.00" departLane="3_3way_A1to4way_B1_0" departPos="5.10" departSpeed="0.00" departDelay="0.72" arrival="85.00" arrivalLane="25_4way_B1to4way_B2_0" arrivalPos="185.60" arrivalSpeed="13.11" duration="70.00" routeLength="375.13" waitingTime="32.00" waitingCount="1" stopTime="0.00" timeLoss="40.78" rerouteNo="0" devices="tripinfo_34" vType="DEFAULT_VEHTYPE" speedFactor="0.96" vaporized=""/>
    <tripinfo id="137" depart="58.00" departLane="3_3way_A1to4way_B1_0" departPos="5.10" departSpeed="0.00" departDelay="0.46" arrival="85.00" arrivalLane="3_3way_A1to4way_B1_0" arrivalPos="185.60" arrivalSpeed="10.90" duration="27.00" routeLength="180.50" waitingTime="1.00" waitingCount="1" stopTime="0.00" timeLoss="15.35" rerouteNo="0" devices="tripinfo_137" vType="DEFAULT_VEHTYPE" speedFactor="1.14" vaporized=""/>
    <tripinfo id="20" depart="9.00" departLane="7_3way_A3to4way_B3_0" departPos="5.10" departSpeed="0.00" departDelay="0.60" arrival="86.00" arrivalLane="15_4way_C3to3way_C4_0" arrivalPos="185.60" arrivalSpeed="11.32" duration="77.00" routeLength="575.13" waitingTime="20.00" waitingCount="1" stopTime="0.00" timeLoss="29.54" rerouteNo="0" devices="tripinfo_20" vType="DEFAULT_VEHTYPE" speedFactor="0.89" vaporized=""/>
    <tripinfo id="168" depart="71.00" departLane="12_3way_C0to3way_D0_0" departPos="5.10" departSpeed="0.00" departDelay="0.44" arrival="87.00" arrivalLane="12_3way_C0to3way_D0_0" arrivalPos="185.60" arrivalSpeed="15.02" duration="16.00" routeLength="180.50" waitingTime="0.00" waitingCount="0" stopTime="0.00" timeLoss="3.47" rerouteNo="0" devices="tripinfo_168" vType="DEFAULT_VEHTYPE" speedFactor="1.10" vaporized=""/>
    <tripinfo id="172" depart="73.00" departLane="11_4way_B3to3way_B4_0" departPos="5.10" departSpeed="0.00" departDelay="0.76" arrival="91.00" arrivalLane="11_4way_B3to3way_B4_0" arrivalPos="185.60" arrivalSpeed="11.84" duration="18.00" routeLength="180.50" waitingTime="0.00" waitingCount="0" stopTime="0.00" timeLoss="3.72" rerouteNo="0" devices="tripinfo_172" vType="DEFAULT_VEHTYPE" speedFactor="0.92" vaporized=""/>
    <tripinfo id="37" depart="16.00" departLane="20_3way_E1to3way_E2_0" departPos="5.10" departSpeed="0.00" departDelay="0.46" arrival="92.00" arrivalLane="22_3way_E2to3way_E3_0" arrivalPos="185.60" arrivalSpeed="9.12" duration="76.00" routeLength="380.50" waitingTime="34.00" waitingCount="1" stopTime="0.00" timeLoss="48.12" rerouteNo="0" devices="tripinfo_37" vType="DEFAULT_VEHTYPE" speedFactor="0.99" vaporized=""/>
    <tripinfo id="55" depart="24.00" departLane="35_4way_D1to4way_D2_0" departPos="5.10" departSpeed="0.00" departDelay="0.90" arrival="93.00" arrivalLane="29_4way_C3to4way_B3_0" arrivalPos="185.60" arrivalSpeed="12.68" duration="69.00" routeLength="775.13" waitingTime="0.00" waitingCount="0" stopTime="0.00" timeLoss="8.60" rerouteNo="0" devices="tripinfo_55" vType="DEFAULT_VEHTYPE" speedFactor="0.94" vaporized=""/>
    <tripinfo id="114" depart="48.00" departLane="16_3way_D0to3way_E1_0" departPos="5.10" departSpeed="0.00" departDelay="0.12" arrival="93.00" arrivalLane="20_3way_E1to3way_E2_0" arrivalPos="185.60" arrivalSpeed="10.59" duration="45.00" routeLength="577.30" waitingTime="0.00" waitingCount="0" stopTime="0.00" timeLoss="5.64" rerouteNo="0" devices="tripinfo_114" vType="DEFAULT_VEHTYPE" speedFactor="1.06" vaporized=""/>
    <tripinfo id="104" depart="44.00" departLane="20_3way_E1to3way_E2_0" departPos="5.10" departSpeed="0.00" departDelay="0.32" arrival="95.00" arrivalLane="22_3way_E2to3way_E3_0" arrivalPos="185.60" arrivalSpeed="12.88" duration="51.00" routeLength="380.50" waitingTime="10.00" waitingCount="1" stopTime="0.00" timeLoss="21.93" rerouteNo="0" devices="tripinfo_104" vType="DEFAULT_VEHTYPE" speedFactor="0.95" vaporized=""/>
    <tripinfo id="28" depart="12.00" departLane="4_3way_A3to3way_A2_0" departPos="5.10" departSpeed="0.00" departDelay="0.24" arrival="100.00" arrivalLane="26_4way_B1to4way_C1_0" arrivalPos="185.60" arrivalSpeed="8.78" duration="88.00" routeLength="775.13" waitingTime="14.00" waitingCount="1" stopTime="0.00" timeLoss="33.01" rerouteNo="0" devices="tripinfo_28" vType="DEFAULT_VEHTYPE" speedFactor="1.03" vaporized=""/>
    <tripinfo id="195" depart="83.00" departLane="3_3way_A1to4way_B1_0" departPos="5.10" departSpeed="0.00" departDelay="1.10" arrival="101.00" arrivalLane="3_3way_A1to4way_B1_0" arrivalPos="185.60" arrivalSpeed="12.42" duration="18.00" routeLength="180.50" waitingTime="0.00" waitingCount="0" stopTime="0.00" timeLoss="3.12" rerouteNo="0" devices="tripinfo_195" vType="DEFAULT_VEHTYPE" speedFactor="0.90" vaporized=""/>
    <tripinfo id="3" depart="2.00" departLane="27_4way_B3to4way_B2_0" departPos="5.10" departSpeed="0.00" departDelay="0.74" arrival="102.00" arrivalLane="12_3way_C0to3way_D0_0" arrivalPos="185.60" arrivalSpeed="12.19" duration="100.00" routeLength="975.13" waitingTime="11.00" waitingCount="1" stopTime="0.00" timeLoss="22.19" rerouteNo="0" devices="tripinfo_3" vType="DEFAULT_VEHTYPE" speedFactor="0.91" vaporized=""/>
    <tripinfo id="44" depart="19.00" departLane="10_3way_B4to3way_C4_0" departPos="5.10" departSpeed="0.00" departDelay="0.52" arrival="108.00" arrivalLane="18_3way_D4to3way_E3_0" arrivalPos="388.80" arrivalSpeed="10.70" duration="89.00" routeLength="783.70" waitingTime="5.00" waitingCount="1" stopTime="0.00" timeLoss="16.32" rerouteNo="0" devices="tripinfo_44" vType="DEFAULT_VEHTYPE" speedFactor="0.78" vaporized=""/>
    <tripinfo id="48" depart="21.00" departLane="34_4way_D3to4way_C3_0" departPos="5.10" departSpeed="0.00" departDelay="0.84" arrival="108.00" arrivalLane="27_4way_B3to4way_B2_0" arrivalPos="185.60" arrivalSpeed="10.93" duration="87.00" routeLength="575.13" waitingTime="23.00" waitingCount="1" stopTime="0.00" timeLoss="35.90" rerouteNo="0" devices="tripinfo_48" vType="DEFAULT_VEHTYPE" speedFactor="0.83" vaporized=""/>
    <tripinfo id="167" depart="71.00" departLane="3_3way_A1to4way_B1_0" departPos="5.10" departSpeed="0.00" departDelay="0.86" arrival="108.00" arrivalLane="26_4way_B1to4way_C1_0" arrivalPos="185.60" arrivalSpeed="10.79" duration="37.00" routeLength="380.50" waitingTime="0.00" waitingCount="0" stopTime="0.00" timeLoss="4.27" rerouteNo="0" devices="tripinfo_167" vType="DEFAULT_VEHTYPE" speedFactor="0.85" vaporized=""/>
    <tripinfo id="213" depart="90.00" departLane="36_4way_D3to4way_D2_0" departPos="5.10" departSpeed="0.00" departDelay="0.54" arrival="108.00" arrivalLane="36_4way_D3to4way_D2_0" arrivalPos="185.60" arrivalSpeed="11.67" duration="18.00" routeLength="180.50" waitingTime="0.00" waitingCount="0" stopTime="0.00" timeLoss="3.16" rerouteNo="0" devices="tripinfo_213" vType="DEFAULT_VEHTYPE" speedFactor="0.91" vaporized=""/>
    <tripinfo id="215" depart="91.00" departLane="24_4way_D3to3way_E3_0" departPos="5.10" departSpeed="0.00" departDelay="0.70" arrival="108.00" arrivalLane="24_4way_D3to3way_E3_0" arrivalPos="185.60" arrivalSpeed="13.26" duration="17.00" routeLength="180.50" waitingTime="0.00" waitingCount="0" stopTime="0.00" timeLoss="3.59" rerouteNo="0" devices="tripinfo_215" vType="DEFAULT_VEHTYPE" speedFactor="1.00" vaporized=""/>
    <tripinfo id="35" depart="21.00" departLane="7_3way_A3to4way_B3_0" departPos="5.10" departSpeed="0.00" departDelay="6.30" arrival="110.00" arrivalLane="14_3way_C4to3way_D4_0" arrivalPos="185.60" arrivalSpeed="11.94" duration="89.00" routeLength="774.92" waitingTime="14.00" waitingCount="1" stopTime="0.00" timeLoss="27.98" rerouteNo="0" devices="tripinfo_35" vType="DEFAULT_VEHTYPE" speedFactor="0.94" vaporized=""/>
    <tripinfo id="151" depart="64.00" departLane="19_3way_D4to4way_D3_0" departPos="5.10" departSpeed="0.00" departDelay="0.58" arrival="110.00" arrivalLane="35_4way_D2to4way_D1_0" arrivalPos="185.60" arrivalSpeed="13.90" duration="46.00" routeLength="580.50" waitingTime="0.00" waitingCount="0" stopTime="0.00" timeLoss="4.81" rerouteNo="0" devices="tripinfo_151" vType="DEFAULT_VEHTYPE" speedFactor="1.02" vaporized=""/>
    <tripinfo id="219" depart="93.00" departLane="27_4way_B3to4way_B2_0" departPos="5.10" departSpeed="0.00" departDelay="1.02" arrival="110.00" arrivalLane="27_4way_B3to4way_B2_0" arrivalPos="185.60" arrivalSpeed="13.44" duration="17.00" routeLength="180.50" waitingTime="0.00" waitingCount="0" stopTime="0.00" timeLoss="3.66" rerouteNo="0" devices="tripinfo_219" vType="DEFAULT_VEHTYPE" speedFactor="1.03" vaporized=""/>
    <tripinfo id="157" depart="66.00" departLane="22_3way_E2to3way_E3_0" departPos="5.10" departSpeed="0.00" departDelay="0.06" arrival="116.00" arrivalLane="18_3way_E3to3way_D4_0" arrivalPos="382.40" arrivalSpeed="12.85" duration="50.00" routeLength="577.30" waitingTime="0.00" waitingCount="0" stopTime="0.00" timeLoss="5.38" rerouteNo="0" devices="tripinfo_157" vType="DEFAULT_VEHTYPE" speedFactor="0.94" vaporized=""/>