<?xml version="1.0" encoding="UTF-8"?>

<!-- generated on 2023-07-31 12:25:08 by Eclipse SUMO sumo Version 1.12.0
<configuration xmlns:xsi="http://www.w3.org/2001/XMLSchema-instance" xsi:noNamespaceSchemaLocation="http://sumo.dlr.de/xsd/sumoConfiguration.xsd">

    <input>
        <net-file value="../../data_generation/sq.net.xml"/>
        <route-files value="../../data_generation/sq.rou.xml"/>
    </input>

    <output>
        <tripinfo-output value="tripinfo.xml"/>
        <statistic-output value="statistic.xml"/>
    </output>

    <time>
        <begin value="0"/>
        <end value="3600"/>
    </time>

    <processing>
        <time-to-teleport value="-1"/>
    </processing>

    <traci_server>
        <remote-port value="44713"/>
    </traci_server>

    <random_number>
        <seed value="1395"/>
    </random_number>

    <gui_only>
        <gui-settings-file value="../../data_generation/view_HY_0402.xml"/>
    </gui_only>

</configuration>
-->

<tripinfos xmlns:xsi="http://www.w3.org/2001/XMLSchema-instance" xsi:noNamespaceSchemaLocation="http://sumo.dlr.de/xsd/tripinfo_file.xsd">
    <tripinfo id="0" depart="0.00" departLane="131_4way_55to4way_54_0" departPos="5.10" departSpeed="0.00" departDelay="0.00" arrival="17.00" arrivalLane="129_4way_54to4way_53_0" arrivalPos="85.60" arrivalSpeed="12.69" duration="17.00" routeLength="180.50" waitingTime="0.00" waitingCount="0" stopTime="0.00" timeLoss="3.98" rerouteNo="0" devices="tripinfo_0" vType="DEFAULT_VEHTYPE" speedFactor="1.00" vaporized=""/>
    <tripinfo id="18" depart="7.00" departLane="102_4way_44to4way_34_0" departPos="5.10" departSpeed="0.00" departDelay="3.21" arrival="17.00" arrivalLane="102_4way_44to4way_34_0" arrivalPos="85.60" arrivalSpeed="12.04" duration="10.00" routeLength="80.50" waitingTime="0.00" waitingCount="0" stopTime="0.00" timeLoss="3.08" rerouteNo="0" devices="tripinfo_18" vType="DEFAULT_VEHTYPE" speedFactor="0.96" vaporized=""/>
    <tripinfo id="23" depart="5.00" departLane="81_4way_31to4way_21_0" departPos="5.10" departSpeed="0.00" departDelay="0.16" arrival="26.00" arrivalLane="12_4way_21to3way_20_0" arrivalPos="85.60" arrivalSpeed="11.30" duration="21.00" routeLength="175.13" waitingTime="0.00" waitingCount="0" stopTime="0.00" timeLoss="5.34" rerouteNo="0" devices="tripinfo_23" vType="DEFAULT_VEHTYPE" speedFactor="0.87" vaporized=""/>
    <tripinfo id="1" depart="1.00" departLane="129_4way_53to4way_54_0" departPos="5.10" departSpeed="0.00" departDelay="0.79" arrival="34.00" arrivalLane="87_4way_34to4way_24_0" arrivalPos="85.60" arrivalSpeed="13.50" duration="33.00" routeLength="375.13" waitingTime="0.00" waitingCount="0" stopTime="0.00" timeLoss="6.19" rerouteNo="0" devices="tripinfo_1" vType="DEFAULT_VEHTYPE" speedFactor="1.04" vaporized=""/>
    <tripinfo id="90" depart="19.00" departLane="52_3way_92to3way_93_0" departPos="5.10" departSpeed="0.00" departDelay="0.05" arrival="39.00" arrivalLane="55_3way_93to4way_83_0" arrivalPos="85.60" arrivalSpeed="12.23" duration="20.00" routeLength="175.13" waitingTime="0.00" waitingCount="0" stopTime="0.00" timeLoss="5.74" rerouteNo="0" devices="tripinfo_90" vType="DEFAULT_VEHTYPE" speedFactor="0.95" vaporized=""/>
    <tripinfo id="148" depart="32.00" departLane="139_4way_58to4way_68_0" departPos="5.10" departSpeed="0.00" departDelay="0.85" arrival="42.00" arrivalLane="139_4way_58to4way_68_0" arrivalPos="85.60" arrivalSpeed="13.62" duration="10.00" routeLength="80.50" waitingTime="0.00" waitingCount="0" stopTime="0.00" timeLoss="3.86" rerouteNo="0" devices="tripinfo_148" vType="DEFAULT_VEHTYPE" speedFactor="1.07" vaporized=""/>
    <tripinfo id="19" depart="4.00" departLane="89_4way_25to4way_35_0" departPos="5.10" departSpeed="0.00" departDelay="0.00" arrival="43.00" arrivalLane="107_4way_37to4way_38_0" arrivalPos="85.60" arrivalSpeed="12.03" duration="39.00" routeLength="375.13" waitingTime="0.00" waitingCount="0" stopTime="0.00" timeLoss="7.64" rerouteNo="0" devices="tripinfo_19" vType="DEFAULT_VEHTYPE" speedFactor="0.89" vaporized=""/>
    <tripinfo id="162" depart="35.00" departLane="89_4way_35to4way_25_0" departPos="5.10" departSpeed="0.00" departDelay="0.90" arrival="45.00" arrivalLane="89_4way_35to4way_25_0" arrivalPos="85.60" arrivalSpeed="13.28" duration="10.00" routeLength="80.50" waitingTime="0.00" waitingCount="0" stopTime="0.00" timeLoss="3.46" rerouteNo="0" devices="tripinfo_162" vType="DEFAULT_VEHTYPE" speedFactor="0.96" vaporized=""/>
    <tripinfo id="134" depart="29.00" departLane="138_4way_57to4way_67_0" departPos="5.10" departSpeed="0.00" departDelay="0.79" arrival="48.00" arrivalLane="152_4way_67to4way_68_0" arrivalPos="85.60" arrivalSpeed="13.22" duration="19.00" routeLength="175.13" waitingTime="0.00" waitingCount="0" stopTime="0.00" timeLoss="5.38" rerouteNo="0" devices="tripinfo_134" vType="DEFAULT_VEHTYPE" speedFactor="1.00" vaporized=""/>
    <tripinfo id="145" depart="31.00" departLane="61_3way_96to4way_86_0" departPos="5.10" departSpeed="0.00" departDelay="0.48" arrival="49.00" arrivalLane="166_4way_86to4way_76_0" arrivalPos="85.60" arrivalSpeed="12.52" duration="18.00" routeLength="180.50" waitingTime="0.00" waitingCount="0" stopTime="0.00" timeLoss="3.65" rerouteNo="0" devices="tripinfo_145" vType="DEFAULT_VEHTYPE" speedFactor="0.96" vaporized=""/>
    <tripinfo id="151" depart="32.00" departLane="53_3way_92to4way_82_0" departPos="5.10" departSpeed="0.00" departDelay="0.21" arrival="51.00" arrivalLane="170_4way_82to4way_81_0" arrivalPos="85.60" arrivalSpeed="14.05" duration="19.00" routeLength="175.13" waitingTime="0.00" waitingCount="0" stopTime="0.00" timeLoss="5.56" rerouteNo="0" devices="tripinfo_151" vType="DEFAULT_VEHTYPE" speedFactor="1.02" vaporized=""/>
    <tripinfo id="119" depart="26.00" departLane="19_3way_49to3way_39_0" departPos="5.10" departSpeed="0.00" departDelay="0.95" arrival="55.00" arrivalLane="107_4way_38to4way_37_0" arrivalPos="85.60" arrivalSpeed="12.41" duration="29.00" routeLength="275.13" waitingTime="0.00" waitingCount="0" stopTime="0.00" timeLoss="5.80" rerouteNo="0" devices="tripinfo_119" vType="DEFAULT_VEHTYPE" speedFactor="0.90" vaporized=""/>
    <tripinfo id="190" depart="40.00" departLane="168_4way_87to4way_77_0" departPos="5.10" departSpeed="0.00" departDelay="0.00" arrival="58.00" arrivalLane="165_4way_77to4way_76_0" arrivalPos="85.60" arrivalSpeed="14.85" duration="18.00" routeLength="175.13" waitingTime="0.00" waitingCount="0" stopTime="0.00" timeLoss="5.59" rerouteNo="0" devices="tripinfo_190" vType="DEFAULT_VEHTYPE" speedFactor="1.08" vaporized=""/>
    <tripinfo id="186" depart="40.00" departLane="137_4way_58to4way_57_0" departPos="5.10" departSpeed="0.00" departDelay="0.85" arrival="59.00" arrivalLane="135_4way_57to4way_56_0" arrivalPos="85.60" arrivalSpeed="11.37" duration="19.00" routeLength="180.50" waitingTime="0.00" waitingCount="0" stopTime="0.00" timeLoss="3.26" rerouteNo="0" devices="tripinfo_186" vType="DEFAULT_VEHTYPE" speedFactor="0.87" vaporized=""/>
    <tripinfo id="268" depart="57.00" departLane="72_4way_14to4way_24_0" departPos="5.10" departSpeed="0.00" departDelay="0.59" arrival="66.00" arrivalLane="72_4way_14to4way_24_0" arrivalPos="85.60" arrivalSpeed="16.59" duration="9.00" routeLength="80.50" waitingTime="0.00" waitingCount="0" stopTime="0.00" timeLoss="4.00" rerouteNo="0" devices="tripinfo_268" vType="DEFAULT_VEHTYPE" speedFactor="1.22" vaporized=""/>
    <tripinfo id="221" depart="47.00" departLane="167_4way_77to4way_78_0" departPos="5.10" departSpeed="0.00" departDelay="0.48" arrival="67.00" arrivalLane="154_4way_78to4way_68_0" arrivalPos="85.60" arrivalSpeed="11.59" duration="20.00" routeLength="175.13" waitingTime="0.00" waitingCount="0" stopTime="0.00" timeLoss="4.61" rerouteNo="0" devices="tripinfo_221" vType="DEFAULT_VEHTYPE" speedFactor="0.90" vaporized=""/>
    <tripinfo id="41" depart="9.00" departLane="42_3way_70to4way_71_0" departPos="5.10" departSpeed="0.00" departDelay="0.37" arrival="70.00" arrivalLane="157_4way_72to4way_73_0" arrivalPos="85.60" arrivalSpeed="6.12" duration="61.00" routeLength="280.50" waitingTime="33.00" waitingCount="1" stopTime="0.00" timeLoss="42.79" rerouteNo="0" devices="tripinfo_41" vType="DEFAULT_VEHTYPE" speedFactor="1.12" vaporized=""/>
    <tripinfo id="115" depart="25.00" departLane="16_3way_3to4way_13_0" departPos="5.10" departSpeed="0.00" departDelay="0.79" arrival="70.00" arrivalLane="70_4way_13to4way_23_0" arrivalPos="85.60" arrivalSpeed="5.53" duration="45.00" routeLength="180.50" waitingTime="24.00" waitingCount="1" stopTime="0.00" timeLoss="30.73" rerouteNo="0" devices="tripinfo_115" vType="DEFAULT_VEHTYPE" speedFactor="0.92" vaporized=""/>
    <tripinfo id="163" depart="35.00" departLane="30_4way_51to3way_50_0" departPos="5.10" departSpeed="0.00" departDelay="0.69" arrival="70.00" arrivalLane="30_4way_51to3way_50_0" arrivalPos="85.60" arrivalSpeed="5.77" duration="35.00" routeLength="80.50" waitingTime="22.00" waitingCount="1" stopTime="0.00" timeLoss="28.62" rerouteNo="0" devices="tripinfo_163" vType="DEFAULT_VEHTYPE" speedFactor="0.94" vaporized=""/>
    <tripinfo id="174" depart="37.00" departLane="67_4way_13to4way_12_0" departPos="5.10" departSpeed="0.00" departDelay="0.37" arrival="70.00" arrivalLane="68_4way_12to4way_22_0" arrivalPos="85.60" arrivalSpeed="6.37" duration="33.00" routeLength="175.13" waitingTime="8.00" waitingCount="1" stopTime="0.00" timeLoss="18.20" rerouteNo="0" devices="tripinfo_174" vType="DEFAULT_VEHTYPE" speedFactor="0.94" vaporized=""/>
    <tripinfo id="155" depart="33.00" departLane="7_3way_19to3way_8_0" departPos="5.10" departSpeed="0.00" departDelay="0.37" arrival="71.00" arrivalLane="7_3way_19to3way_8_0" arrivalPos="182.40" arrivalSpeed="6.65" duration="38.00" routeLength="177.30" waitingTime="16.00" waitingCount="1" stopTime="0.00" timeLoss="23.98" rerouteNo="0" devices="tripinfo_155" vType="DEFAULT_VEHTYPE" speedFactor="0.94" vaporized=""/>
    <tripinfo id="88" depart="19.00" departLane="22_3way_4to4way_14_0" departPos="5.10" departSpeed="0.00" departDelay="0.48" arrival="74.00" arrivalLane="116_4way_44to4way_45_0" arrivalPos="85.60" arrivalSpeed="7.65" duration="55.00" routeLength="475.13" waitingTime="10.00" waitingCount="1" stopTime="0.00" timeLoss="21.96" rerouteNo="0" devices="tripinfo_88" vType="DEFAULT_VEHTYPE" speedFactor="1.06" vaporized=""/>
    <tripinfo id="309" depart="66.00" departLane="152_4way_67to4way_68_0" departPos="5.10" departSpeed="0.00" departDelay="0.95" arrival="75.00" arrivalLane="152_4way_67to4way_68_0" arrivalPos="85.60" arrivalSpeed="14.35" duration="9.00" routeLength="80.50" waitingTime="0.00" waitingCount="0" stopTime="0.00" timeLoss="3.38" rerouteNo="0" devices="tripinfo_309" vType="DEFAULT_VEHTYPE" speedFactor="1.12" vaporized=""/>
    <tripinfo id="72" depart="16.00" departLane="79_4way_18to4way_28_0" departPos="5.10" departSpeed="0.00" departDelay="0.84" arrival="76.00" arrivalLane="14_4way_28to3way_29_0" arrivalPos="85.60" arrivalSpeed="15.10" duration="60.00" routeLength="175.13" waitingTime="39.00" waitingCount="1" stopTime="0.00" timeLoss="48.12" rerouteNo="0" devices="tripinfo_72" vType="DEFAULT_VEHTYPE" speedFactor="1.15" vaporized=""/>
    <tripinfo id="247" depart="52.00" departLane="96_4way_41to4way_31_0" departPos="5.10" departSpeed="0.00" departDelay="0.01" arrival="76.00" arrivalLane="18_4way_31to3way_30_0" arrivalPos="85.60" arrivalSpeed="13.61" duration="24.00" routeLength="175.13" waitingTime="2.00" waitingCount="1" stopTime="0.00" timeLoss="11.20" rerouteNo="0" devices="tripinfo_247" vType="DEFAULT_VEHTYPE" speedFactor="1.07" vaporized=""/>
    <tripinfo id="315" depart="67.00" departLane="19_3way_39to3way_49_0" departPos="5.10" departSpeed="0.00" departDelay="0.69" arrival="76.00" arrivalLane="19_3way_39to3way_49_0" arrivalPos="85.60" arrivalSpeed="11.62" duration="9.00" routeLength="80.50" waitingTime="0.00" waitingCount="0" stopTime="0.00" timeLoss="2.58" rerouteNo="0" devices="tripinfo_315" vType="DEFAULT_VEHTYPE" speedFactor="0.93" vaporized=""/>
    <tripinfo id="7" depart="2.00" departLane="7_3way_19to3way_8_0" departPos="5.10" departSpeed="0.00" departDelay="0.53" arrival="77.00" arrivalLane="39_3way_8to3way_7_0" arrivalPos="85.60" arrivalSpeed="12.65" duration="75.00" routeLength="277.30" waitingTime="44.00" waitingCount="1" stopTime="0.00" timeLoss="53.85" rerouteNo="0" devices="tripinfo_7" vType="DEFAULT_VEHTYPE" speedFactor="0.95" vaporized=""/>
    <tripinfo id="9" depart="2.00" departLane="108_4way_47to4way_37_0" departPos="5.10" departSpeed="0.00" departDelay="0.11" arrival="77.00" arrivalLane="105_4way_37to4way_36_0" arrivalPos="85.60" arrivalSpeed="11.75" duration="75.00" routeLength="175.13" waitingTime="52.00" waitingCount="1" stopTime="0.00" timeLoss="60.37" rerouteNo="0" devices="tripinfo_9" vType="DEFAULT_VEHTYPE" speedFactor="0.91" vaporized=""/>
    <tripinfo id="16" depart="4.00" departLane="145_4way_73to4way_63_0" departPos="5.10" departSpeed="0.00" departDelay="0.63" arrival="77.00" arrivalLane="112_4way_43to4way_42_0" arrivalPos="85.60" arrivalSpeed="12.36" duration="73.00" routeLength="375.13" waitingTime="34.00" waitingCount="1" stopTime="0.00" timeLoss="42.01" rerouteNo="0" devices="tripinfo_16" vType="DEFAULT_VEHTYPE" speedFactor="0.90" vaporized=""/>
    <tripinfo id="17" depart="4.00" departLane="102_4way_44to4way_34_0" departPos="5.10" departSpeed="0.00" departDelay="0.42" arrival="77.00" arrivalLane="9_3way_3to3way_2_0" arrivalPos="85.60" arrivalSpeed="13.96" duration="73.00" routeLength="575.13" waitingTime="20.00" waitingCount="1" stopTime="0.00" timeLoss="31.79" rerouteNo="0" devices="tripinfo_17" vType="DEFAULT_VEHTYPE" speedFactor="1.04" vaporized=""/>
    <tripinfo id="33" depart="7.00" departLane="6_3way_29to3way_19_0" departPos="5.10" departSpeed="0.00" departDelay="0.05" arrival="77.00" arrivalLane="77_4way_18to4way_17_0" arrivalPos="85.60" arrivalSpeed="13.54" duration="70.00" routeLength="275.13" waitingTime="38.00" waitingCount="1" stopTime="0.00" timeLoss="49.91" rerouteNo="0" devices="tripinfo_33" vType="DEFAULT_VEHTYPE" speedFactor="1.06" vaporized=""/>
    <tripinfo id="45" depart="10.00" departLane="133_4way_55to4way_56_0" departPos="5.10" departSpeed="0.00" departDelay="0.53" arrival="77.00" arrivalLane="32_4way_58to3way_59_0" arrivalPos="85.60" arrivalSpeed="13.56" duration="67.00" routeLength="380.50" waitingTime="28.00" waitingCount="1" stopTime="0.00" timeLoss="39.26" rerouteNo="0" devices="tripinfo_45" vType="DEFAULT_VEHTYPE" speedFactor="1.00" vaporized=""/>
    <tripinfo id="50" depart="11.00" departLane="137_4way_58to4way_57_0" departPos="5.10" departSpeed="0.00" departDelay="0.47" arrival="77.00" arrivalLane="149_4way_65to4way_75_0" arrivalPos="85.60" arrivalSpeed="12.87" duration="66.00" routeLength="475.13" waitingTime="18.00" waitingCount="1" stopTime="0.00" timeLoss="30.95" rerouteNo="0" devices="tripinfo_50" vType="DEFAULT_VEHTYPE" speedFactor="1.01" vaporized=""/>
    <tripinfo id="67" depart="15.00" departLane="159_4way_74to4way_73_0" departPos="5.10" departSpeed="0.00" departDelay="0.90" arrival="77.00" arrivalLane="160_4way_73to4way_83_0" arrivalPos="85.60" arrivalSpeed="12.06" duration="62.00" routeLength="175.13" waitingTime="39.00" waitingCount="1" stopTime="0.00" timeLoss="46.79" rerouteNo="0" devices="tripinfo_67" vType="DEFAULT_VEHTYPE" speedFactor="0.88" vaporized=""/>
    <tripinfo id="117" depart="25.00" departLane="113_4way_52to4way_42_0" departPos="5.10" departSpeed="0.00" departDelay="0.37" arrival="77.00" arrivalLane="110_4way_42to4way_41_0" arrivalPos="85.60" arrivalSpeed="11.80" duration="52.00" routeLength="175.13" waitingTime="29.00" waitingCount="1" stopTime="0.00" timeLoss="37.42" rerouteNo="0" devices="tripinfo_117" vType="DEFAULT_VEHTYPE" speedFactor="0.91" vaporized=""/>
    <tripinfo id="147" depart="31.00" departLane="107_4way_37to4way_38_0" departPos="5.10" departSpeed="0.00" departDelay="0.06" arrival="77.00" arrivalLane="13_3way_39to3way_29_0" arrivalPos="85.60" arrivalSpeed="12.72" duration="46.00" routeLength="275.13" waitingTime="16.00" waitingCount="1" stopTime="0.00" timeLoss="24.68" rerouteNo="0" devices="tripinfo_147" vType="DEFAULT_VEHTYPE" speedFactor="0.97" vaporized=""/>
    <tripinfo id="178" depart="38.00" departLane="168_4way_77to4way_87_0" departPos="5.10" departSpeed="0.00" departDelay="0.53" arrival="77.00" arrivalLane="63_4way_87to3way_97_0" arrivalPos="85.60" arrivalSpeed="14.66" duration="39.00" routeLength="180.50" waitingTime="15.00" waitingCount="1" stopTime="0.00" timeLoss="26.08" rerouteNo="0" devices="tripinfo_178" vType="DEFAULT_VEHTYPE" speedFactor="1.07" vaporized=""/>
    <tripinfo id="202" depart="43.00" departLane="68_4way_22to4way_12_0" departPos="5.10" departSpeed="0.00" departDelay="0.48" arrival="77.00" arrivalLane="10_4way_12to3way_2_0" arrivalPos="85.60" arrivalSpeed="12.15" duration="34.00" routeLength="180.50" waitingTime="11.00" waitingCount="1" stopTime="0.00" timeLoss="19.34" rerouteNo="0" devices="tripinfo_202" vType="DEFAULT_VEHTYPE" speedFactor="0.90" vaporized=""/>
    <tripinfo id="220" depart="47.00" departLane="167_4way_78to4way_77_0" departPos="5.10" departSpeed="0.00" departDelay="0.69" arrival="77.00" arrivalLane="165_4way_77to4way_76_0" arrivalPos="85.60" arrivalSpeed="11.96" duration="30.00" routeLength="180.50" waitingTime="8.00" waitingCount="1" stopTime="0.00" timeLoss="15.38" rerouteNo="0" devices="tripinfo_220" vType="DEFAULT_VEHTYPE" speedFactor="0.92" vaporized=""/>
    <tripinfo id="322" depart="68.00" departLane="171_4way_83to4way_82_0" departPos="5.10" departSpeed="0.00" departDelay="0.22" arrival="77.00" arrivalLane="171_4way_83to4way_82_0" arrivalPos="85.60" arrivalSpeed="13.90" duration="9.00" routeLength="80.50" waitingTime="0.00" waitingCount="0" stopTime="0.00" timeLoss="3.35" rerouteNo="0" devices="tripinfo_322" vType="DEFAULT_VEHTYPE" speedFactor="1.08" vaporized=""/>
    <tripinfo id="10" depart="3.00" departLane="136_4way_56to4way_66_0" departPos="5.10" departSpeed="0.00" departDelay="0.89" arrival="78.00" arrivalLane="152_4way_67to4way_68_0" arrivalPos="85.60" arrivalSpeed="13.32" duration="75.00" routeLength="275.13" waitingTime="43.00" waitingCount="1" stopTime="0.00" timeLoss="55.19" rerouteNo="0" devices="tripinfo_10" vType="DEFAULT_VEHTYPE" speedFactor="1.04" vaporized=""/>
    <tripinfo id="290" depart="62.00" departLane="27_3way_6to3way_5_0" departPos="5.10" departSpeed="0.00" departDelay="0.95" arrival="78.00" arrivalLane="21_3way_5to3way_4_0" arrivalPos="85.60" arrivalSpeed="14.56" duration="16.00" routeLength="180.50" waitingTime="0.00" waitingCount="0" stopTime="0.00" timeLoss="4.15" rerouteNo="0" devices="tripinfo_290" vType="DEFAULT_VEHTYPE" speedFactor="1.14" vaporized=""/>
    <tripinfo id="191" depart="41.00" departLane="43_3way_89to3way_79_0" departPos="5.10" departSpeed="0.00" departDelay="0.79" arrival="79.00" arrivalLane="165_4way_77to4way_76_0" arrivalPos="85.60" arrivalSpeed="12.05" duration="38.00" routeLength="375.13" waitingTime="0.00" waitingCount="0" stopTime="0.00" timeLoss="7.80" rerouteNo="0" devices="tripinfo_191" vType="DEFAULT_VEHTYPE" speedFactor="0.94" vaporized=""/>
    <tripinfo id="207" depart="44.00" departLane="169_4way_88to4way_78_0" departPos="5.10" departSpeed="0.00" departDelay="0.43" arrival="79.00" arrivalLane="154_4way_78to4way_68_0" arrivalPos="85.60" arrivalSpeed="16.70" duration="35.00" routeLength="180.50" waitingTime="11.00" waitingCount="1" stopTime="0.00" timeLoss="23.61" rerouteNo="0" devices="tripinfo_207" vType="DEFAULT_VEHTYPE" speedFactor="1.24" vaporized=""/>
    <tripinfo id="317" depart="67.00" departLane="92_4way_28to4way_27_0" departPos="5.10" departSpeed="0.00" departDelay="0.27" arrival="80.00" arrivalLane="92_4way_28to4way_27_0" arrivalPos="85.60" arrivalSpeed="12.49" duration="13.00" routeLength="80.50" waitingTime="0.00" waitingCount="0" stopTime="0.00" timeLoss="7.33" rerouteNo="0" devices="tripinfo_317" vType="DEFAULT_VEHTYPE" speedFactor="1.11" vaporized=""/>
    <tripinfo id="198" depart="43.00" departLane="20_4way_38to3way_39_0" departPos="5.10" departSpeed="0.00" departDelay="1.32" arrival="81.00" arrivalLane="13_3way_39to3way_29_0" arrivalPos="85.60" arrivalSpeed="10.85" duration="38.00" routeLength="175.13" waitingTime="13.00" waitingCount="1" stopTime="0.00" timeLoss="21.88" rerouteNo="0" devices="tripinfo_198" vType="DEFAULT_VEHTYPE" speedFactor="0.87" vaporized=""/>
    <tripinfo id="214" depart="51.00" departLane="68_4way_12to4way_22_0" departPos="5.10" departSpeed="0.00" departDelay="5.95" arrival="82.00" arrivalLane="82_4way_22to4way_23_0" arrivalPos="85.60" arrivalSpeed="12.57" duration="31.00" routeLength="175.13" waitingTime="7.00" waitingCount="1" stopTime="0.00" timeLoss="16.80" rerouteNo="0" devices="tripinfo_214" vType="DEFAULT_VEHTYPE" speedFactor="1.00" vaporized=""/>
    <tripinfo id="218" depart="46.00" departLane="28_3way_5to4way_15_0" departPos="5.10" departSpeed="0.00" departDelay="0.11" arrival="82.00" arrivalLane="77_4way_17to4way_18_0" arrivalPos="85.60" arrivalSpeed="12.66" duration="36.00" routeLength="375.13" waitingTime="0.00" waitingCount="0" stopTime="0.00" timeLoss="6.91" rerouteNo="0" devices="tripinfo_218" vType="DEFAULT_VEHTYPE" speedFactor="0.96" vaporized=""/>
    <tripinfo id="227" depart="48.00" departLane="30_4way_51to3way_50_0" departPos="5.10" departSpeed="0.00" departDelay="0.22" arrival="82.00" arrivalLane="29_3way_50to3way_60_0" arrivalPos="85.60" arrivalSpeed="13.03" duration="34.00" routeLength="175.13" waitingTime="9.00" waitingCount="1" stopTime="0.00" timeLoss="20.66" rerouteNo="0" devices="tripinfo_227" vType="DEFAULT_VEHTYPE" speedFactor="1.00" vaporized=""/>
    <tripinfo id="28" depart="6.00" departLane="50_3way_91to3way_92_0" departPos="5.10" departSpeed="0.00" departDelay="0.11" arrival="84.00" arrivalLane="128_4way_62to4way_52_0" arrivalPos="85.60" arrivalSpeed="13.54" duration="78.00" routeLength="475.13" waitingTime="31.00" waitingCount="1" stopTime="0.00" timeLoss="44.08" rerouteNo="0" devices="tripinfo_28" vType="DEFAULT_VEHTYPE" speedFactor="1.03" vaporized=""/>
    <tripinfo id="97" depart="21.00" departLane="46_3way_80to3way_91_0" departPos="5.10" departSpeed="0.00" departDelay="0.58" arrival="84.00" arrivalLane="52_3way_92to3way_93_0" arrivalPos="85.60" arrivalSpeed="13.81" duration="63.00" routeLength="377.30" waitingTime="25.00" waitingCount="1" stopTime="0.00" timeLoss="37.26" rerouteNo="0" devices="tripinfo_97" vType="DEFAULT_VEHTYPE" speedFactor="1.06" vaporized=""/>
    <tripinfo id="114" depart="24.00" departLane="54_3way_94to3way_93_0" departPos="5.10" departSpeed="0.00" departDelay="0.00" arrival="84.00" arrivalLane="46_3way_91to3way_80_0" arrivalPos="188.80" arrivalSpeed="13.96" duration="60.00" routeLength="483.70" waitingTime="15.00" waitingCount="1" stopTime="0.00" timeLoss="26.50" rerouteNo="0" devices="tripinfo_114" vType="DEFAULT_VEHTYPE" speedFactor="1.06" vaporized=""/>
    <tripinfo id="303" depart="64.00" departLane="32_3way_59to4way_58_0" departPos="5.10" departSpeed="0.00" departDelay="0.22" arrival="84.00" arrivalLane="139_4way_58to4way_68_0" arrivalPos="85.60" arrivalSpeed="13.66" duration="20.00" routeLength="175.13" waitingTime="0.00" waitingCount="0" stopTime="0.00" timeLoss="6.25" rerouteNo="0" devices="tripinfo_303" vType="DEFAULT_VEHTYPE" speedFactor="1.02" vaporized=""/>
    <tripinfo id="13" depart="3.00" departLane="109_4way_38to4way_48_0" departPos="5.10" departSpeed="0.00" departDelay="0.26" arrival="85.00" arrivalLane="31_3way_59to3way_69_0" arrivalPos="85.60" arrivalSpeed="12.91" duration="82.00" routeLength="374.92" waitingTime="41.00" waitingCount="1" stopTime="0.00" timeLoss="52.74" rerouteNo="0" devices="tripinfo_13" vType="DEFAULT_VEHTYPE" speedFactor="0.98" vaporized=""/>
    <tripinfo id="47" depart="10.00" departLane="10_3way_2to4way_12_0" departPos="5.10" departSpeed="0.00" departDelay="0.11" arrival="86.00" arrivalLane="69_4way_13to4way_14_0" arrivalPos="85.60" arrivalSpeed="11.84" duration="76.00" routeLength="275.13" waitingTime="45.00" waitingCount="1" stopTime="0.00" timeLoss="52.93" rerouteNo="0" devices="tripinfo_47" vType="DEFAULT_VEHTYPE" speedFactor="0.90" vaporized=""/>
    <tripinfo id="71" depart="15.00" departLane="119_4way_45to4way_55_0" departPos="5.10" departSpeed="0.00" departDelay="0.05" arrival="86.00" arrivalLane="148_4way_65to4way_66_0" arrivalPos="85.60" arrivalSpeed="15.52" duration="71.00" routeLength="275.13" waitingTime="39.00" waitingCount="1" stopTime="0.00" timeLoss="52.39" rerouteNo="0" devices="tripinfo_71" vType="DEFAULT_VEHTYPE" speedFactor="1.13" vaporized=""/>
    <tripinfo id="204" depart="43.00" departLane="46_3way_80to3way_91_0" departPos="5.10" departSpeed="0.00" departDelay="0.06" arrival="86.00" arrivalLane="52_3way_92to3way_93_0" arrivalPos="85.60" arrivalSpeed="14.37" duration="43.00" routeLength="377.30" waitingTime="6.00" waitingCount="1" stopTime="0.00" timeLoss="18.32" rerouteNo="0" devices="tripinfo_204" vType="DEFAULT_VEHTYPE" speedFactor="1.12" vaporized=""/>
    <tripinfo id="245" depart="52.00" departLane="155_4way_71to4way_72_0" departPos="5.10" departSpeed="0.00" departDelay="0.43" arrival="86.00" arrivalLane="113_4way_52to4way_42_0" arrivalPos="85.60" arrivalSpeed="14.74" duration="34.00" routeLength="375.13" waitingTime="0.00" waitingCount="0" stopTime="0.00" timeLoss="9.82" rerouteNo="0" devices="tripinfo_245" vType="DEFAULT_VEHTYPE" speedFactor="1.15" vaporized=""/>
    <tripinfo id="79" depart="17.00" departLane="112_4way_42to4way_43_0" departPos="5.10" departSpeed="0.00" departDelay="0.37" arrival="88.00" arrivalLane="104_4way_45to4way_35_0" arrivalPos="85.60" arrivalSpeed="11.37" duration="71.00" routeLength="375.13" waitingTime="29.00" waitingCount="1" stopTime="0.00" timeLoss="39.54" rerouteNo="0" devices="tripinfo_79" vType="DEFAULT_VEHTYPE" speedFactor="0.90" vaporized=""/>
    <tripinfo id="109" depart="23.00" departLane="120_4way_47to4way_46_0" departPos="5.10" departSpeed="0.00" departDelay="0.06" arrival="88.00" arrivalLane="117_4way_44to4way_54_0" arrivalPos="85.60" arrivalSpeed="13.74" duration="65.00" routeLength="375.13" waitingTime="25.00" waitingCount="1" stopTime="0.00" timeLoss="38.27" rerouteNo="0" devices="tripinfo_109" vType="DEFAULT_VEHTYPE" speedFactor="1.04" vaporized=""/>
    <tripinfo id="171" depart="36.00" departLane="18_3way_30to4way_31_0" departPos="5.10" departSpeed="0.00" departDelay="0.00" arrival="88.00" arrivalLane="85_4way_33to4way_23_0" arrivalPos="85.60" arrivalSpeed="13.90" duration="52.00" routeLength="375.13" waitingTime="14.00" waitingCount="1" stopTime="0.00" timeLoss="25.23" rerouteNo="0" devices="tripinfo_171" vType="DEFAULT_VEHTYPE" speedFactor="1.04" vaporized=""/>
    <tripinfo id="80" depart="17.00" departLane="120_4way_47to4way_46_0" departPos="5.10" departSpeed="0.00" departDelay="0.16" arrival="89.00" arrivalLane="134_4way_55to4way_65_0" arrivalPos="85.60" arrivalSpeed="10.67" duration="72.00" routeLength="375.13" waitingTime="26.00" waitingCount="1" stopTime="0.00" timeLoss="35.83" rerouteNo="0" devices="tripinfo_80" vType="DEFAULT_VEHTYPE" speedFactor="0.78" vaporized=""/>
    <tripinfo id="106" depart="23.00" departLane="34_4way_16to3way_6_0" departPos="5.10" departSpeed="0.00" departDelay="0.69" arrival="89.00" arrivalLane="9_3way_3to3way_2_0" arrivalPos="85.60" arrivalSpeed="12.54" duration="66.00" routeLength="475.13" waitingTime="19.00" waitingCount="1" stopTime="0.00" timeLoss="35.80" rerouteNo="0" devices="tripinfo_106" vType="DEFAULT_VEHTYPE" speedFactor="1.16" vaporized=""/>
    <tripinfo id="96" depart="21.00" departLane="171_4way_82to4way_83_0" departPos="5.10" departSpeed="0.00" departDelay="0.79" arrival="90.00" arrivalLane="164_4way_85to4way_75_0" arrivalPos="85.60" arrivalSpeed="13.04" duration="69.00" routeLength="375.13" waitingTime="26.00" waitingCount="1" stopTime="0.00" timeLoss="39.28" rerouteNo="0" devices="tripinfo_96" vType="DEFAULT_VEHTYPE" speedFactor="0.95" vaporized=""/>
    <tripinfo id="347" depart="74.00" departLane="7_3way_19to3way_8_0" departPos="5.10" departSpeed="0.00" departDelay="0.96" arrival="91.00" arrivalLane="7_3way_19to3way_8_0" arrivalPos="182.40" arrivalSpeed="13.05" duration="17.00" routeLength="177.30" waitingTime="0.00" waitingCount="0" stopTime="0.00" timeLoss="3.87" rerouteNo="0" devices="tripinfo_347" vType="DEFAULT_VEHTYPE" speedFactor="1.01" vaporized=""/>
    <tripinfo id="82" depart="18.00" departLane="95_4way_31to4way_32_0" departPos="5.10" departSpeed="0.00" departDelay="0.74" arrival="92.00" arrivalLane="10_4way_12to3way_2_0" arrivalPos="85.60" arrivalSpeed="13.09" duration="74.00" routeLength="375.13" waitingTime="36.00" waitingCount="1" stopTime="0.00" timeLoss="45.94" rerouteNo="0" devices="tripinfo_82" vType="DEFAULT_VEHTYPE" speedFactor="0.99" vaporized=""/>
    <tripinfo id="105" depart="23.00" departLane="41_3way_70to3way_80_0" departPos="5.10" departSpeed="0.00" departDelay="0.90" arrival="92.00" arrivalLane="172_4way_83to4way_84_0" arrivalPos="85.60" arrivalSpeed="9.31" duration="69.00" routeLength="475.13" waitingTime="17.00" waitingCount="1" stopTime="0.00" timeLoss="32.54" rerouteNo="0" devices="tripinfo_105" vType="DEFAULT_VEHTYPE" speedFactor="0.95" vaporized=""/>
    <tripinfo id="138" depart="30.00" departLane="120_4way_47to4way_46_0" departPos="5.10" departSpeed="0.00" departDelay="0.95" arrival="92.00" arrivalLane="117_4way_44to4way_54_0" arrivalPos="85.60" arrivalSpeed="13.45" duration="62.00" routeLength="375.13" waitingTime="21.00" waitingCount="1" stopTime="0.00" timeLoss="33.13" rerouteNo="0" devices="tripinfo_138" vType="DEFAULT_VEHTYPE" speedFactor="1.00" vaporized=""/>