<?xml version="1.0" encoding="UTF-8"?>

<!-- generated on 2023-08-01 11:02:24 by Eclipse SUMO sumo Version 1.12.0
<configuration xmlns:xsi="http://www.w3.org/2001/XMLSchema-instance" xsi:noNamespaceSchemaLocation="http://sumo.dlr.de/xsd/sumoConfiguration.xsd">

    <input>
        <net-file value="../../data_generation/sq.net.xml"/>
        <route-files value="../../data_generation/sq.rou.xml"/>
    </input>

    <output>
        <tripinfo-output value="tripinfo.xml"/>
        <statistic-output value="statistic.xml"/>
    </output>

    <time>
        <begin value="0"/>
        <end value="3600"/>
    </time>

    <processing>
        <time-to-teleport value="-1"/>
    </processing>

    <traci_server>
        <remote-port value="55247"/>
    </traci_server>

    <random_number>
        <seed value="1395"/>
    </random_number>

    <gui_only>
        <gui-settings-file value="../../data_generation/view_HY_0402.xml"/>
    </gui_only>

</configuration>
-->

<tripinfos xmlns:xsi="http://www.w3.org/2001/XMLSchema-instance" xsi:noNamespaceSchemaLocation="http://sumo.dlr.de/xsd/tripinfo_file.xsd">
    <tripinfo id="1" depart="1.00" departLane="373_4way_66to4way_67_0" departPos="5.10" departSpeed="0.00" departDelay="0.89" arrival="10.00" arrivalLane="373_4way_66to4way_67_0" arrivalPos="85.60" arrivalSpeed="13.32" duration="9.00" routeLength="80.50" waitingTime="0.00" waitingCount="0" stopTime="0.00" timeLoss="3.36" rerouteNo="0" devices="tripinfo_1" vType="DEFAULT_VEHTYPE" speedFactor="1.04" vaporized=""/>
    <tripinfo id="22" depart="3.00" departLane="403_4way_98to4way_83_0" departPos="5.10" departSpeed="0.00" departDelay="0.56" arrival="12.00" arrivalLane="403_4way_98to4way_83_0" arrivalPos="85.60" arrivalSpeed="13.26" duration="9.00" routeLength="80.50" waitingTime="0.00" waitingCount="0" stopTime="0.00" timeLoss="2.91" rerouteNo="0" devices="tripinfo_22" vType="DEFAULT_VEHTYPE" speedFactor="1.00" vaporized=""/>
    <tripinfo id="47" depart="6.00" departLane="40_3way_180to4way_181_0" departPos="5.10" departSpeed="0.00" departDelay="0.78" arrival="16.00" arrivalLane="40_3way_180to4way_181_0" arrivalPos="85.60" arrivalSpeed="11.79" duration="10.00" routeLength="80.50" waitingTime="0.00" waitingCount="0" stopTime="0.00" timeLoss="3.26" rerouteNo="0" devices="tripinfo_47" vType="DEFAULT_VEHTYPE" speedFactor="0.90" vaporized=""/>
    <tripinfo id="115" depart="13.00" departLane="99_3way_75to4way_76_0" departPos="5.10" departSpeed="0.00" departDelay="0.22" arrival="23.00" arrivalLane="99_3way_75to4way_76_0" arrivalPos="85.60" arrivalSpeed="11.69" duration="10.00" routeLength="80.50" waitingTime="0.00" waitingCount="0" stopTime="0.00" timeLoss="3.46" rerouteNo="0" devices="tripinfo_115" vType="DEFAULT_VEHTYPE" speedFactor="0.92" vaporized=""/>
    <tripinfo id="82" depart="10.00" departLane="171_4way_131to4way_132_0" departPos="5.10" departSpeed="0.00" departDelay="0.89" arrival="27.00" arrivalLane="173_4way_132to4way_133_0" arrivalPos="85.60" arrivalSpeed="13.62" duration="17.00" routeLength="180.50" waitingTime="0.00" waitingCount="0" stopTime="0.00" timeLoss="3.77" rerouteNo="0" devices="tripinfo_82" vType="DEFAULT_VEHTYPE" speedFactor="0.99" vaporized=""/>
    <tripinfo id="24" depart="3.00" departLane="340_4way_48to4way_47_0" departPos="5.10" departSpeed="0.00" departDelay="0.33" arrival="31.00" arrivalLane="366_4way_62to4way_77_0" arrivalPos="85.60" arrivalSpeed="12.38" duration="28.00" routeLength="275.13" waitingTime="0.00" waitingCount="0" stopTime="0.00" timeLoss="6.36" rerouteNo="0" devices="tripinfo_24" vType="DEFAULT_VEHTYPE" speedFactor="0.97" vaporized=""/>
    <tripinfo id="108" depart="12.00" departLane="125_4way_108to4way_93_0" departPos="5.10" departSpeed="0.00" departDelay="0.00" arrival="32.00" arrivalLane="410_4way_93to4way_92_0" arrivalPos="85.60" arrivalSpeed="11.62" duration="20.00" routeLength="175.13" waitingTime="0.00" waitingCount="0" stopTime="0.00" timeLoss="5.14" rerouteNo="0" devices="tripinfo_108" vType="DEFAULT_VEHTYPE" speedFactor="0.88" vaporized=""/>
    <tripinfo id="206" depart="23.00" departLane="93_4way_61to3way_60_0" departPos="5.10" departSpeed="0.00" departDelay="0.11" arrival="32.00" arrivalLane="93_4way_61to3way_60_0" arrivalPos="85.60" arrivalSpeed="12.03" duration="9.00" routeLength="80.50" waitingTime="0.00" waitingCount="0" stopTime="0.00" timeLoss="2.56" rerouteNo="0" devices="tripinfo_206" vType="DEFAULT_VEHTYPE" speedFactor="0.92" vaporized=""/>
    <tripinfo id="210" depart="24.00" departLane="54_3way_213to4way_198_0" departPos="5.10" departSpeed="0.00" departDelay="0.67" arrival="33.00" arrivalLane="54_3way_213to4way_198_0" arrivalPos="85.60" arrivalSpeed="16.05" duration="9.00" routeLength="80.50" waitingTime="0.00" waitingCount="0" stopTime="0.00" timeLoss="3.51" rerouteNo="0" devices="tripinfo_210" vType="DEFAULT_VEHTYPE" speedFactor="1.20" vaporized=""/>
    <tripinfo id="7" depart="1.00" departLane="7_3way_119to3way_104_0" departPos="5.10" departSpeed="0.00" departDelay="0.22" arrival="34.00" arrivalLane="88_3way_74to3way_59_0" arrivalPos="85.60" arrivalSpeed="11.98" duration="33.00" routeLength="380.50" waitingTime="0.00" waitingCount="0" stopTime="0.00" timeLoss="4.04" rerouteNo="0" devices="tripinfo_7" vType="DEFAULT_VEHTYPE" speedFactor="0.95" vaporized=""/>
    <tripinfo id="156" depart="18.00" departLane="7_3way_119to3way_104_0" departPos="5.10" departSpeed="0.00" departDelay="0.67" arrival="36.00" arrivalLane="8_3way_104to3way_89_0" arrivalPos="85.60" arrivalSpeed="11.52" duration="18.00" routeLength="180.50" waitingTime="0.00" waitingCount="0" stopTime="0.00" timeLoss="3.35" rerouteNo="0" devices="tripinfo_156" vType="DEFAULT_VEHTYPE" speedFactor="0.91" vaporized=""/>
    <tripinfo id="331" depart="37.00" departLane="233_4way_168to4way_183_0" departPos="5.10" departSpeed="0.00" departDelay="0.23" arrival="46.00" arrivalLane="233_4way_168to4way_183_0" arrivalPos="85.60" arrivalSpeed="12.06" duration="9.00" routeLength="80.50" waitingTime="0.00" waitingCount="0" stopTime="0.00" timeLoss="2.84" rerouteNo="0" devices="tripinfo_331" vType="DEFAULT_VEHTYPE" speedFactor="0.94" vaporized=""/>
    <tripinfo id="350" depart="39.00" departLane="8_3way_104to3way_89_0" departPos="5.10" departSpeed="0.00" departDelay="0.11" arrival="48.00" arrivalLane="8_3way_104to3way_89_0" arrivalPos="85.60" arrivalSpeed="13.62" duration="9.00" routeLength="80.50" waitingTime="0.00" waitingCount="0" stopTime="0.00" timeLoss="3.04" rerouteNo="0" devices="tripinfo_350" vType="DEFAULT_VEHTYPE" speedFactor="1.07" vaporized=""/>
    <tripinfo id="78" depart="9.00" departLane="187_4way_141to4way_156_0" departPos="5.10" departSpeed="0.00" departDelay="0.33" arrival="50.00" arrivalLane="217_4way_159to4way_160_0" arrivalPos="85.60" arrivalSpeed="13.35" duration="41.00" routeLength="475.13" waitingTime="0.00" waitingCount="0" stopTime="0.00" timeLoss="6.41" rerouteNo="0" devices="tripinfo_78" vType="DEFAULT_VEHTYPE" speedFactor="1.03" vaporized=""/>
    <tripinfo id="204" depart="23.00" departLane="345_4way_64to4way_49_0" departPos="5.10" departSpeed="0.00" departDelay="0.34" arrival="53.00" arrivalLane="81_4way_19to3way_4_0" arrivalPos="85.60" arrivalSpeed="14.71" duration="30.00" routeLength="380.50" waitingTime="0.00" waitingCount="0" stopTime="0.00" timeLoss="4.62" rerouteNo="0" devices="tripinfo_204" vType="DEFAULT_VEHTYPE" speedFactor="1.12" vaporized=""/>
    <tripinfo id="430" depart="48.00" departLane="228_4way_167to4way_166_0" departPos="5.10" departSpeed="0.00" departDelay="0.23" arrival="58.00" arrivalLane="228_4way_167to4way_166_0" arrivalPos="85.60" arrivalSpeed="11.29" duration="10.00" routeLength="80.50" waitingTime="0.00" waitingCount="0" stopTime="0.00" timeLoss="3.03" rerouteNo="0" devices="tripinfo_430" vType="DEFAULT_VEHTYPE" speedFactor="0.90" vaporized=""/>
    <tripinfo id="455" depart="52.00" departLane="28_3way_149to4way_148_0" departPos="5.10" departSpeed="0.00" departDelay="1.45" arrival="62.00" arrivalLane="28_3way_149to4way_148_0" arrivalPos="85.60" arrivalSpeed="14.40" duration="10.00" routeLength="80.50" waitingTime="0.00" waitingCount="0" stopTime="0.00" timeLoss="4.09" rerouteNo="0" devices="tripinfo_455" vType="DEFAULT_VEHTYPE" speedFactor="1.08" vaporized=""/>
    <tripinfo id="342" depart="38.00" departLane="243_4way_172to4way_187_0" departPos="5.10" departSpeed="0.00" departDelay="0.00" arrival="63.00" arrivalLane="292_4way_202to4way_203_0" arrivalPos="85.60" arrivalSpeed="14.31" duration="25.00" routeLength="275.13" waitingTime="0.00" waitingCount="0" stopTime="0.00" timeLoss="5.55" rerouteNo="0" devices="tripinfo_342" vType="DEFAULT_VEHTYPE" speedFactor="1.06" vaporized=""/>
    <tripinfo id="359" depart="40.00" departLane="223_4way_162to4way_161_0" departPos="5.10" departSpeed="0.00" departDelay="0.11" arrival="66.00" arrivalLane="217_4way_160to4way_159_0" arrivalPos="85.60" arrivalSpeed="12.96" duration="26.00" routeLength="280.50" waitingTime="0.00" waitingCount="0" stopTime="0.00" timeLoss="3.77" rerouteNo="0" devices="tripinfo_359" vType="DEFAULT_VEHTYPE" speedFactor="0.94" vaporized=""/>
    <tripinfo id="18" depart="5.00" departLane="137_4way_112to4way_97_0" departPos="5.10" departSpeed="0.00" departDelay="3.00" arrival="70.00" arrivalLane="137_4way_112to4way_97_0" arrivalPos="85.60" arrivalSpeed="5.58" duration="65.00" routeLength="80.50" waitingTime="51.00" waitingCount="1" stopTime="0.00" timeLoss="58.78" rerouteNo="0" devices="tripinfo_18" vType="DEFAULT_VEHTYPE" speedFactor="0.96" vaporized=""/>
    <tripinfo id="167" depart="20.00" departLane="357_4way_55to4way_70_0" departPos="5.10" departSpeed="0.00" departDelay="1.45" arrival="70.00" arrivalLane="357_4way_55to4way_70_0" arrivalPos="85.60" arrivalSpeed="4.76" duration="50.00" routeLength="80.50" waitingTime="37.00" waitingCount="1" stopTime="0.00" timeLoss="43.09" rerouteNo="0" devices="tripinfo_167" vType="DEFAULT_VEHTYPE" speedFactor="0.85" vaporized=""/>
    <tripinfo id="235" depart="27.00" departLane="221_4way_161to4way_160_0" departPos="5.10" departSpeed="0.00" departDelay="0.89" arrival="70.00" arrivalLane="214_4way_157to4way_172_0" arrivalPos="85.60" arrivalSpeed="12.80" duration="43.00" routeLength="475.13" waitingTime="0.00" waitingCount="0" stopTime="0.00" timeLoss="5.83" rerouteNo="0" devices="tripinfo_235" vType="DEFAULT_VEHTYPE" speedFactor="0.95" vaporized=""/>
    <tripinfo id="317" depart="36.00" departLane="37_3way_179to3way_194_0" departPos="5.10" departSpeed="0.00" departDelay="0.78" arrival="70.00" arrivalLane="41_3way_194to3way_209_0" arrivalPos="85.60" arrivalSpeed="4.67" duration="34.00" routeLength="180.50" waitingTime="14.00" waitingCount="1" stopTime="0.00" timeLoss="22.28" rerouteNo="0" devices="tripinfo_317" vType="DEFAULT_VEHTYPE" speedFactor="1.11" vaporized=""/>
    <tripinfo id="249" depart="28.00" departLane="368_4way_78to4way_63_0" departPos="5.10" departSpeed="0.00" departDelay="0.34" arrival="71.00" arrivalLane="365_4way_63to4way_62_0" arrivalPos="85.60" arrivalSpeed="5.32" duration="43.00" routeLength="175.13" waitingTime="19.00" waitingCount="1" stopTime="0.00" timeLoss="30.95" rerouteNo="0" devices="tripinfo_249" vType="DEFAULT_VEHTYPE" speedFactor="1.12" vaporized=""/>
    <tripinfo id="548" depart="61.00" departLane="414_4way_96to4way_97_0" departPos="5.10" departSpeed="0.00" departDelay="0.12" arrival="71.00" arrivalLane="414_4way_96to4way_97_0" arrivalPos="85.60" arrivalSpeed="12.35" duration="10.00" routeLength="80.50" waitingTime="0.00" waitingCount="0" stopTime="0.00" timeLoss="3.13" rerouteNo="0" devices="tripinfo_548" vType="DEFAULT_VEHTYPE" speedFactor="0.97" vaporized=""/>
    <tripinfo id="530" depart="62.00" departLane="45_3way_3to3way_2_0" departPos="5.10" departSpeed="0.00" departDelay="3.12" arrival="72.00" arrivalLane="45_3way_3to3way_2_0" arrivalPos="85.60" arrivalSpeed="10.91" duration="10.00" routeLength="80.50" waitingTime="0.00" waitingCount="0" stopTime="0.00" timeLoss="3.10" rerouteNo="0" devices="tripinfo_530" vType="DEFAULT_VEHTYPE" speedFactor="0.85" vaporized=""/>
    <tripinfo id="592" depart="66.00" departLane="302_4way_23to4way_24_0" departPos="5.10" departSpeed="0.00" departDelay="0.23" arrival="75.00" arrivalLane="302_4way_23to4way_24_0" arrivalPos="85.60" arrivalSpeed="13.45" duration="9.00" routeLength="80.50" waitingTime="0.00" waitingCount="0" stopTime="0.00" timeLoss="3.22" rerouteNo="0" devices="tripinfo_592" vType="DEFAULT_VEHTYPE" speedFactor="1.05" vaporized=""/>
    <tripinfo id="378" depart="42.00" departLane="391_4way_92to4way_77_0" departPos="5.10" departSpeed="0.00" departDelay="0.00" arrival="76.00" arrivalLane="338_4way_47to4way_46_0" arrivalPos="85.60" arrivalSpeed="13.59" duration="34.00" routeLength="375.13" waitingTime="0.00" waitingCount="0" stopTime="0.00" timeLoss="6.55" rerouteNo="0" devices="tripinfo_378" vType="DEFAULT_VEHTYPE" speedFactor="1.03" vaporized=""/>
    <tripinfo id="26" depart="3.00" departLane="34_3way_164to4way_163_0" departPos="5.10" departSpeed="0.00" departDelay="0.11" arrival="77.00" arrivalLane="227_4way_163to4way_178_0" arrivalPos="85.60" arrivalSpeed="13.84" duration="74.00" routeLength="175.13" waitingTime="53.00" waitingCount="1" stopTime="0.00" timeLoss="60.93" rerouteNo="0" devices="tripinfo_26" vType="DEFAULT_VEHTYPE" speedFactor="1.03" vaporized=""/>
    <tripinfo id="83" depart="10.00" departLane="256_4way_33to4way_18_0" departPos="5.10" departSpeed="0.00" departDelay="0.78" arrival="77.00" arrivalLane="77_4way_18to3way_3_0" arrivalPos="85.60" arrivalSpeed="11.71" duration="67.00" routeLength="180.50" waitingTime="45.00" waitingCount="1" stopTime="0.00" timeLoss="52.52" rerouteNo="0" devices="tripinfo_83" vType="DEFAULT_VEHTYPE" speedFactor="0.93" vaporized=""/>
    <tripinfo id="127" depart="15.00" departLane="8_3way_104to3way_89_0" departPos="5.10" departSpeed="0.00" departDelay="0.89" arrival="77.00" arrivalLane="408_4way_88to4way_87_0" arrivalPos="85.60" arrivalSpeed="9.27" duration="62.00" routeLength="275.13" waitingTime="30.00" waitingCount="1" stopTime="0.00" timeLoss="41.55" rerouteNo="0" devices="tripinfo_127" vType="DEFAULT_VEHTYPE" speedFactor="1.00" vaporized=""/>
    <tripinfo id="209" depart="24.00" departLane="227_4way_178to4way_163_0" departPos="5.10" departSpeed="0.00" departDelay="0.78" arrival="77.00" arrivalLane="175_4way_148to4way_133_0" arrivalPos="85.60" arrivalSpeed="12.99" duration="53.00" routeLength="280.50" waitingTime="22.00" waitingCount="1" stopTime="0.00" timeLoss="31.45" rerouteNo="0" devices="tripinfo_209" vType="DEFAULT_VEHTYPE" speedFactor="0.95" vaporized=""/>
    <tripinfo id="273" depart="31.00" departLane="178_4way_137to4way_138_0" departPos="5.10" departSpeed="0.00" departDelay="0.67" arrival="77.00" arrivalLane="182_4way_139to4way_140_0" arrivalPos="85.60" arrivalSpeed="13.26" duration="46.00" routeLength="280.50" waitingTime="17.00" waitingCount="1" stopTime="0.00" timeLoss="25.81" rerouteNo="0" devices="tripinfo_273" vType="DEFAULT_VEHTYPE" speedFactor="1.04" vaporized=""/>
    <tripinfo id="93" depart="11.00" departLane="298_4way_22to4way_21_0" departPos="5.10" departSpeed="0.00" departDelay="0.67" arrival="78.00" arrivalLane="299_4way_21to4way_36_0" arrivalPos="85.60" arrivalSpeed="13.72" duration="67.00" routeLength="175.13" waitingTime="45.00" waitingCount="1" stopTime="0.00" timeLoss="52.82" rerouteNo="0" devices="tripinfo_93" vType="DEFAULT_VEHTYPE" speedFactor="1.00" vaporized=""/>
    <tripinfo id="163" depart="19.00" departLane="216_4way_173to4way_158_0" departPos="5.10" departSpeed="0.00" departDelay="0.89" arrival="79.00" arrivalLane="191_4way_158to4way_143_0" arrivalPos="85.60" arrivalSpeed="12.40" duration="60.00" routeLength="180.50" waitingTime="37.00" waitingCount="1" stopTime="0.00" timeLoss="45.88" rerouteNo="0" devices="tripinfo_163" vType="DEFAULT_VEHTYPE" speedFactor="0.94" vaporized=""/>
    <tripinfo id="267" depart="30.00" departLane="242_4way_173to4way_172_0" departPos="5.10" departSpeed="0.00" departDelay="0.34" arrival="79.00" arrivalLane="240_4way_172to4way_171_0" arrivalPos="85.60" arrivalSpeed="15.25" duration="49.00" routeLength="180.50" waitingTime="26.00" waitingCount="1" stopTime="0.00" timeLoss="36.82" rerouteNo="0" devices="tripinfo_267" vType="DEFAULT_VEHTYPE" speedFactor="1.11" vaporized=""/>
    <tripinfo id="270" depart="30.00" departLane="301_4way_22to4way_37_0" departPos="5.10" departSpeed="0.00" departDelay="0.00" arrival="79.00" arrivalLane="326_4way_37to4way_52_0" arrivalPos="85.60" arrivalSpeed="13.82" duration="49.00" routeLength="180.50" waitingTime="27.00" waitingCount="1" stopTime="0.00" timeLoss="36.70" rerouteNo="0" devices="tripinfo_270" vType="DEFAULT_VEHTYPE" speedFactor="1.09" vaporized=""/>
    <tripinfo id="272" depart="31.00" departLane="246_4way_175to4way_174_0" departPos="5.10" departSpeed="0.00" departDelay="0.78" arrival="79.00" arrivalLane="244_4way_174to4way_173_0" arrivalPos="85.60" arrivalSpeed="8.78" duration="48.00" routeLength="180.50" waitingTime="21.00" waitingCount="1" stopTime="0.00" timeLoss="29.71" rerouteNo="0" devices="tripinfo_272" vType="DEFAULT_VEHTYPE" speedFactor="0.72" vaporized=""/>
    <tripinfo id="247" depart="28.00" departLane="232_4way_168to4way_169_0" departPos="5.10" departSpeed="0.00" departDelay="0.56" arrival="81.00" arrivalLane="208_4way_169to4way_154_0" arrivalPos="85.60" arrivalSpeed="14.57" duration="53.00" routeLength="175.13" waitingTime="29.00" waitingCount="1" stopTime="0.00" timeLoss="40.44" rerouteNo="0" devices="tripinfo_247" vType="DEFAULT_VEHTYPE" speedFactor="1.07" vaporized=""/>
    <tripinfo id="445" depart="50.00" departLane="184_4way_141to4way_140_0" departPos="5.10" departSpeed="0.00" departDelay="0.56" arrival="81.00" arrivalLane="182_4way_140to4way_139_0" arrivalPos="85.60" arrivalSpeed="10.01" duration="31.00" routeLength="180.50" waitingTime="6.00" waitingCount="1" stopTime="0.00" timeLoss="17.71" rerouteNo="0" devices="tripinfo_445" vType="DEFAULT_VEHTYPE" speedFactor="1.02" vaporized=""/>
    <tripinfo id="489" depart="55.00" departLane="194_4way_145to4way_146_0" departPos="5.10" departSpeed="0.00" departDelay="0.67" arrival="81.00" arrivalLane="196_4way_146to4way_147_0" arrivalPos="85.60" arrivalSpeed="12.39" duration="26.00" routeLength="180.50" waitingTime="2.00" waitingCount="1" stopTime="0.00" timeLoss="14.01" rerouteNo="0" devices="tripinfo_489" vType="DEFAULT_VEHTYPE" speedFactor="1.15" vaporized=""/>
    <tripinfo id="323" depart="36.00" departLane="28_3way_149to4way_148_0" departPos="5.10" departSpeed="0.00" departDelay="0.11" arrival="83.00" arrivalLane="196_4way_147to4way_146_0" arrivalPos="85.60" arrivalSpeed="15.49" duration="47.00" routeLength="280.50" waitingTime="17.00" waitingCount="1" stopTime="0.00" timeLoss="29.13" rerouteNo="0" devices="tripinfo_323" vType="DEFAULT_VEHTYPE" speedFactor="1.15" vaporized=""/>
    <tripinfo id="481" depart="54.00" departLane="391_4way_77to4way_92_0" departPos="5.10" departSpeed="0.00" departDelay="0.56" arrival="84.00" arrivalLane="122_4way_92to4way_107_0" arrivalPos="85.60" arrivalSpeed="13.50" duration="30.00" routeLength="180.50" waitingTime="5.00" waitingCount="1" stopTime="0.00" timeLoss="16.59" rerouteNo="0" devices="tripinfo_481" vType="DEFAULT_VEHTYPE" speedFactor="0.97" vaporized=""/>
    <tripinfo id="109" depart="13.00" departLane="309_4way_41to4way_26_0" departPos="5.10" departSpeed="0.00" departDelay="0.89" arrival="85.00" arrivalLane="300_4way_23to4way_22_0" arrivalPos="85.60" arrivalSpeed="13.87" duration="72.00" routeLength="475.13" waitingTime="25.00" waitingCount="1" stopTime="0.00" timeLoss="37.76" rerouteNo="0" devices="tripinfo_109" vType="DEFAULT_VEHTYPE" speedFactor="1.04" vaporized=""/>
    <tripinfo id="168" depart="19.00" departLane="390_4way_78to4way_77_0" departPos="5.10" departSpeed="0.00" departDelay="0.33" arrival="85.00" arrivalLane="389_4way_76to4way_91_0" arrivalPos="85.60" arrivalSpeed="14.92" duration="66.00" routeLength="275.13" waitingTime="35.00" waitingCount="1" stopTime="0.00" timeLoss="46.99" rerouteNo="0" devices="tripinfo_168" vType="DEFAULT_VEHTYPE" speedFactor="1.10" vaporized=""/>
    <tripinfo id="223" depart="25.00" departLane="114_4way_87to4way_102_0" departPos="5.10" departSpeed="0.00" departDelay="0.22" arrival="85.00" arrivalLane="148_4way_117to4way_118_0" arrivalPos="85.60" arrivalSpeed="13.99" duration="60.00" routeLength="275.13" waitingTime="30.00" waitingCount="1" stopTime="0.00" timeLoss="40.14" rerouteNo="0" devices="tripinfo_223" vType="DEFAULT_VEHTYPE" speedFactor="1.03" vaporized=""/>
    <tripinfo id="609" depart="68.00" departLane="73_3way_223to4way_208_0" departPos="5.10" departSpeed="0.00" departDelay="0.34" arrival="85.00" arrivalLane="283_4way_208to4way_193_0" arrivalPos="85.60" arrivalSpeed="13.40" duration="17.00" routeLength="180.50" waitingTime="0.00" waitingCount="0" stopTime="0.00" timeLoss="3.65" rerouteNo="0" devices="tripinfo_609" vType="DEFAULT_VEHTYPE" speedFactor="1.00" vaporized=""/>
    <tripinfo id="149" depart="17.00" departLane="116_4way_88to4way_103_0" departPos="5.10" departSpeed="0.00" departDelay="0.45" arrival="86.00" arrivalLane="150_4way_118to4way_133_0" arrivalPos="85.60" arrivalSpeed="6.98" duration="69.00" routeLength="280.50" waitingTime="36.00" waitingCount="1" stopTime="0.00" timeLoss="47.65" rerouteNo="0" devices="tripinfo_149" vType="DEFAULT_VEHTYPE" speedFactor="0.95" vaporized=""/>
    <tripinfo id="16" depart="2.00" departLane="184_4way_141to4way_140_0" departPos="5.10" departSpeed="0.00" departDelay="0.22" arrival="88.00" arrivalLane="183_4way_139to4way_154_0" arrivalPos="85.60" arrivalSpeed="11.65" duration="86.00" routeLength="275.13" waitingTime="53.00" waitingCount="1" stopTime="0.00" timeLoss="63.34" rerouteNo="0" devices="tripinfo_16" vType="DEFAULT_VEHTYPE" speedFactor="0.90" vaporized=""/>
    <tripinfo id="621" depart="69.00" departLane="209_4way_155to4way_156_0" departPos="5.10" departSpeed="0.00" departDelay="0.01" arrival="88.00" arrivalLane="187_4way_156to4way_141_0" arrivalPos="85.60" arrivalSpeed="12.38" duration="19.00" routeLength="175.13" waitingTime="0.00" waitingCount="0" stopTime="0.00" timeLoss="4.56" rerouteNo="0" devices="tripinfo_621" vType="DEFAULT_VEHTYPE" speedFactor="0.95" vaporized=""/>
    <tripinfo id="310" depart="35.00" departLane="246_4way_175to4way_174_0" departPos="5.10" departSpeed="0.00" departDelay="0.56" arrival="89.00" arrivalLane="242_4way_173to4way_172_0" arrivalPos="85.60" arrivalSpeed="12.92" duration="54.00" routeLength="280.50" waitingTime="20.00" waitingCount="1" stopTime="0.00" timeLoss="31.91" rerouteNo="0" devices="tripinfo_310" vType="DEFAULT_VEHTYPE" speedFactor="0.94" vaporized=""/>
    <tripinfo id="444" depart="50.00" departLane="369_4way_65to4way_64_0" departPos="5.10" departSpeed="0.00" departDelay="0.67" arrival="89.00" arrivalLane="128_4way_94to4way_109_0" arrivalPos="85.60" arrivalSpeed="11.62" duration="39.00" routeLength="375.13" waitingTime="0.00" waitingCount="0" stopTime="0.00" timeLoss="6.16" rerouteNo="0" devices="tripinfo_444" vType="DEFAULT_VEHTYPE" speedFactor="0.85" vaporized=""/>
    <tripinfo id="142" depart="16.00" departLane="62_3way_217to4way_202_0" departPos="5.10" departSpeed="0.00" departDelay="0.22" arrival="90.00" arrivalLane="259_4way_183to4way_182_0" arrivalPos="85.60" arrivalSpeed="15.04" duration="74.00" routeLength="675.13" waitingTime="17.00" waitingCount="1" stopTime="0.00" timeLoss="28.77" rerouteNo="0" devices="tripinfo_142" vType="DEFAULT_VEHTYPE" speedFactor="1.09" vaporized=""/>
    <tripinfo id="388" depart="44.00" departLane="406_4way_86to4way_85_0" departPos="5.10" departSpeed="0.00" departDelay="0.89" arrival="90.00" arrivalLane="357_4way_70to4way_55_0" arrivalPos="85.60" arrivalSpeed="12.65" duration="46.00" routeLength="280.30" waitingTime="14.00" waitingCount="1" stopTime="0.00" timeLoss="24.03" rerouteNo="0" devices="tripinfo_388" vType="DEFAULT_VEHTYPE" speedFactor="0.95" vaporized=""/>
    <tripinfo id="511" depart="57.00" departLane="111_4way_101to4way_86_0" departPos="5.10" departSpeed="0.00" departDelay="0.23" arrival="90.00" arrivalLane="356_4way_56to4way_55_0" arrivalPos="85.60" arrivalSpeed="14.91" duration="33.00" routeLength="375.13" waitingTime="0.00" waitingCount="0" stopTime="0.00" timeLoss="7.86" rerouteNo="0" devices="tripinfo_511" vType="DEFAULT_VEHTYPE" speedFactor="1.12" vaporized=""/>
    <tripinfo id="652" depart="73.00" departLane="306_4way_25to4way_26_0" departPos="5.10" departSpeed="0.00" departDelay="0.56" arrival="90.00" arrivalLane="308_4way_26to4way_27_0" arrivalPos="85.60" arrivalSpeed="12.51" duration="17.00" routeLength="180.50" waitingTime="0.00" waitingCount="0" stopTime="0.00" timeLoss="3.50" rerouteNo="0" devices="tripinfo_652" vType="DEFAULT_VEHTYPE" speedFactor="0.97" vaporized=""/>
    <tripinfo id="513" depart="57.00" departLane="69_3way_221to3way_222_0" departPos="5.10" departSpeed="0.00" departDelay="0.01" arrival="91.00" arrivalLane="73_3way_223to4way_208_0" arrivalPos="85.60" arrivalSpeed="10.83" duration="34.00" routeLength="275.13" waitingTime="0.00" waitingCount="0" stopTime="0.00" timeLoss="9.66" rerouteNo="0" devices="tripinfo_513" vType="DEFAULT_VEHTYPE" speedFactor="0.85" vaporized=""/>
    <tripinfo id="678" depart="81.00" departLane="304_4way_25to4way_24_0" departPos="5.10" departSpeed="0.00" departDelay="5.67" arrival="91.00" arrivalLane="304_4way_25to4way_24_0" arrivalPos="85.60" arrivalSpeed="11.93" duration="10.00" routeLength="80.50" waitingTime="0.00" waitingCount="0" stopTime="0.00" timeLoss="3.25" rerouteNo="0" devices="tripinfo_678" vType="DEFAULT_VEHTYPE" speedFactor="0.94" vaporized=""/>
    <tripinfo id="673" depart="75.00" departLane="316_4way_47to4way_32_0" departPos="5.10" departSpeed="0.00" departDelay="0.23" arrival="92.00" arrivalLane="237_4way_32to4way_17_0" arrivalPos="85.60" arrivalSpeed="14.31" duration="17.00" routeLength="180.50" waitingTime="0.00" waitingCount="0" stopTime="0.00" timeLoss="3.65" rerouteNo="0" devices="tripinfo_673" vType="DEFAULT_VEHTYPE" speedFactor="1.04" vaporized=""/>
    <tripinfo id="218" depart="25.00" departLane="275_4way_19to4way_20_0" departPos="5.10" departSpeed="0.00" departDelay="0.78" arrival="93.00" arrivalLane="302_4way_23to4way_24_0" arrivalPos="85.60" arrivalSpeed="12.23" duration="68.00" routeLength="480.50" waitingTime="23.00" waitingCount="1" stopTime="0.00" timeLoss="31.49" rerouteNo="0" devices="tripinfo_218" vType="DEFAULT_VEHTYPE" speedFactor="0.96" vaporized=""/>
    <tripinfo id="475" depart="53.00" departLane="50_4way_196to3way_211_0" departPos="5.10" departSpeed="0.00" departDelay="0.23" arrival="93.00" arrivalLane="53_3way_213to3way_214_0" arrivalPos="85.60" arrivalSpeed="12.97" duration="40.00" routeLength="375.13" waitingTime="1.00" waitingCount="1" stopTime="0.00" timeLoss="11.74" rerouteNo="0" devices="tripinfo_475" vType="DEFAULT_VEHTYPE" speedFactor="1.00" vaporized=""/>
    <tripinfo id="98" depart="11.00" departLane="364_4way_76to4way_61_0" departPos="5.10" departSpeed="0.00" departDelay="0.11" arrival="97.00" arrivalLane="79_4way_31to3way_30_0" arrivalPos="85.60" arrivalSpeed="11.91" duration="86.00" routeLength="375.13" waitingTime="43.00" waitingCount="1" stopTime="0.00" timeLoss="54.23" rerouteNo="0" devices="tripinfo_98" vType="DEFAULT_VEHTYPE" speedFactor="0.88" vaporized=""/>
    <tripinfo id="311" depart="35.00" departLane="336_4way_42to4way_57_0" departPos="5.10" departSpeed="0.00" departDelay="0.45" arrival="98.00" arrivalLane="173_4way_132to4way_133_0" arrivalPos="85.60" arrivalSpeed="13.23" duration="63.00" routeLength="675.13" waitingTime="0.00" waitingCount="0" stopTime="0.00" timeLoss="15.69" rerouteNo="0" devices="tripinfo_311" vType="DEFAULT_VEHTYPE" speedFactor="1.04" vaporized=""/>
    <tripinfo id="737" depart="82.00" departLane="331_4way_41to4way_40_0" departPos="5.10" departSpeed="0.00" departDelay="0.12" arrival="100.00" arrivalLane="329_4way_40to4way_39_0" arrivalPos="85.60" arrivalSpeed="13.02" duration="18.00" routeLength="180.50" waitingTime="0.00" waitingCount="0" stopTime="0.00" timeLoss="4.09" rerouteNo="0" devices="tripinfo_737" vType="DEFAULT_VEHTYPE" speedFactor="0.99" vaporized=""/>
    <tripinfo id="500" depart="56.00" departLane="302_4way_24to4way_23_0" departPos="5.10" departSpeed="0.00" departDelay="0.45" arrival="101.00" arrivalLane="289_4way_20to4way_35_0" arrivalPos="85.60" arrivalSpeed="12.44" duration="45.00" routeLength="475.13" waitingTime="0.00" waitingCount="0" stopTime="0.00" timeLoss="5.97" rerouteNo="0" devices="tripinfo_500" vType="DEFAULT_VEHTYPE" speedFactor="0.92" vaporized=""/>
    <tripinfo id="12" depart="2.00" departLane="270_4way_187to4way_202_0" departPos="5.10" departSpeed="0.00" departDelay="0.67" arrival="102.00" arrivalLane="71_3way_222to3way_223_0" arrivalPos="85.60" arrivalSpeed="15.55" duration="100.00" routeLength="775.13" waitingTime="38.00" waitingCount="1" stopTime="0.00" timeLoss="50.81" rerouteNo="0" devices="tripinfo_12" vType="DEFAULT_VEHTYPE" speedFactor="1.16" vaporized=""/>
    <tripinfo id="292" depart="33.00" departLane="21_3way_29to3way_13_0" departPos="5.10" departSpeed="0.00" departDelay="0.56" arrival="102.00" arrivalLane="5_3way_10to3way_9_0" arrivalPos="85.60" arrivalSpeed="14.57" duration="69.00" routeLength="577.30" waitingTime="12.00" waitingCount="1" stopTime="0.00" timeLoss="31.65" rerouteNo="0" devices="tripinfo_292" vType="DEFAULT_VEHTYPE" speedFactor="1.14" vaporized=""/>
    <tripinfo id="176" depart="20.00" departLane="160_4way_140to4way_125_0" departPos="5.10" departSpeed="0.00" departDelay="0.45" arrival="103.00" arrivalLane="394_4way_80to4way_79_0" arrivalPos="85.60" arrivalSpeed="13.26" duration="83.00" routeLength="475.13" waitingTime="35.00" waitingCount="1" stopTime="0.00" timeLoss="46.72" rerouteNo="0" devices="tripinfo_176" vType="DEFAULT_VEHTYPE" speedFactor="0.97" vaporized=""/>