<?xml version="1.0" encoding="UTF-8"?>

<!-- generated on 2023-08-03 10:35:56 by Eclipse SUMO sumo Version 1.12.0
<configuration xmlns:xsi="http://www.w3.org/2001/XMLSchema-instance" xsi:noNamespaceSchemaLocation="http://sumo.dlr.de/xsd/sumoConfiguration.xsd">

    <input>
        <net-file value="../../data_generation/sq.net.xml"/>
        <route-files value="../../data_generation/sq.rou.xml"/>
    </input>

    <output>
        <tripinfo-output value="tripinfo.xml"/>
        <statistic-output value="statistic.xml"/>
    </output>

    <time>
        <begin value="0"/>
        <end value="3600"/>
    </time>

    <processing>
        <time-to-teleport value="-1"/>
    </processing>

    <traci_server>
        <remote-port value="43181"/>
    </traci_server>

    <random_number>
        <seed value="1395"/>
    </random_number>

    <gui_only>
        <gui-settings-file value="../../data_generation/view_HY_0402.xml"/>
    </gui_only>

</configuration>
-->

<tripinfos xmlns:xsi="http://www.w3.org/2001/XMLSchema-instance" xsi:noNamespaceSchemaLocation="http://sumo.dlr.de/xsd/tripinfo_file.xsd">
    <tripinfo id="1" depart="1.00" departLane="373_4way_66to4way_67_0" departPos="5.10" departSpeed="0.00" departDelay="0.92" arrival="10.00" arrivalLane="373_4way_66to4way_67_0" arrivalPos="85.60" arrivalSpeed="13.89" duration="9.00" routeLength="80.50" waitingTime="0.00" waitingCount="0" stopTime="0.00" timeLoss="3.30" rerouteNo="0" devices="tripinfo_1" vType="DEFAULT_VEHTYPE" speedFactor="1.04" vaporized=""/>
    <tripinfo id="22" depart="2.00" departLane="403_4way_98to4way_83_0" departPos="5.10" departSpeed="0.00" departDelay="0.17" arrival="11.00" arrivalLane="403_4way_98to4way_83_0" arrivalPos="85.60" arrivalSpeed="13.26" duration="9.00" routeLength="80.50" waitingTime="0.00" waitingCount="0" stopTime="0.00" timeLoss="2.91" rerouteNo="0" devices="tripinfo_22" vType="DEFAULT_VEHTYPE" speedFactor="1.00" vaporized=""/>
    <tripinfo id="47" depart="4.00" departLane="40_3way_180to4way_181_0" departPos="5.10" departSpeed="0.00" departDelay="0.08" arrival="14.00" arrivalLane="40_3way_180to4way_181_0" arrivalPos="85.60" arrivalSpeed="11.67" duration="10.00" routeLength="80.50" waitingTime="0.00" waitingCount="0" stopTime="0.00" timeLoss="3.26" rerouteNo="0" devices="tripinfo_47" vType="DEFAULT_VEHTYPE" speedFactor="0.90" vaporized=""/>
    <tripinfo id="115" depart="12.00" departLane="99_3way_75to4way_76_0" departPos="5.10" departSpeed="0.00" departDelay="2.42" arrival="22.00" arrivalLane="99_3way_75to4way_76_0" arrivalPos="85.60" arrivalSpeed="12.78" duration="10.00" routeLength="80.50" waitingTime="0.00" waitingCount="0" stopTime="0.00" timeLoss="3.29" rerouteNo="0" devices="tripinfo_115" vType="DEFAULT_VEHTYPE" speedFactor="0.92" vaporized=""/>
    <tripinfo id="82" depart="7.00" departLane="171_4way_131to4way_132_0" departPos="5.10" departSpeed="0.00" departDelay="0.17" arrival="25.00" arrivalLane="173_4way_132to4way_133_0" arrivalPos="85.60" arrivalSpeed="13.50" duration="18.00" routeLength="180.50" waitingTime="0.00" waitingCount="0" stopTime="0.00" timeLoss="4.04" rerouteNo="0" devices="tripinfo_82" vType="DEFAULT_VEHTYPE" speedFactor="0.99" vaporized=""/>
    <tripinfo id="210" depart="18.00" departLane="54_3way_213to4way_198_0" departPos="5.10" departSpeed="0.00" departDelay="0.51" arrival="27.00" arrivalLane="54_3way_213to4way_198_0" arrivalPos="85.60" arrivalSpeed="16.12" duration="9.00" routeLength="80.50" waitingTime="0.00" waitingCount="0" stopTime="0.00" timeLoss="3.19" rerouteNo="0" devices="tripinfo_210" vType="DEFAULT_VEHTYPE" speedFactor="1.20" vaporized=""/>
    <tripinfo id="206" depart="18.00" departLane="93_4way_61to3way_60_0" departPos="5.10" departSpeed="0.00" departDelay="0.84" arrival="28.00" arrivalLane="93_4way_61to3way_60_0" arrivalPos="85.60" arrivalSpeed="12.71" duration="10.00" routeLength="80.50" waitingTime="0.00" waitingCount="0" stopTime="0.00" timeLoss="2.88" rerouteNo="0" devices="tripinfo_206" vType="DEFAULT_VEHTYPE" speedFactor="0.92" vaporized=""/>
    <tripinfo id="24" depart="2.00" departLane="340_4way_48to4way_47_0" departPos="5.10" departSpeed="0.00" departDelay="0.00" arrival="29.00" arrivalLane="366_4way_62to4way_77_0" arrivalPos="85.60" arrivalSpeed="12.62" duration="27.00" routeLength="275.13" waitingTime="0.00" waitingCount="0" stopTime="0.00" timeLoss="6.13" rerouteNo="0" devices="tripinfo_24" vType="DEFAULT_VEHTYPE" speedFactor="0.97" vaporized=""/>
    <tripinfo id="108" depart="9.00" departLane="125_4way_108to4way_93_0" departPos="5.10" departSpeed="0.00" departDelay="0.00" arrival="30.00" arrivalLane="410_4way_93to4way_92_0" arrivalPos="85.60" arrivalSpeed="11.01" duration="21.00" routeLength="175.13" waitingTime="0.00" waitingCount="0" stopTime="0.00" timeLoss="5.38" rerouteNo="0" devices="tripinfo_108" vType="DEFAULT_VEHTYPE" speedFactor="0.88" vaporized=""/>
    <tripinfo id="156" depart="13.00" departLane="7_3way_119to3way_104_0" departPos="5.10" departSpeed="0.00" departDelay="0.00" arrival="31.00" arrivalLane="8_3way_104to3way_89_0" arrivalPos="85.60" arrivalSpeed="12.67" duration="18.00" routeLength="180.50" waitingTime="0.00" waitingCount="0" stopTime="0.00" timeLoss="3.12" rerouteNo="0" devices="tripinfo_156" vType="DEFAULT_VEHTYPE" speedFactor="0.91" vaporized=""/>
    <tripinfo id="7" depart="1.00" departLane="7_3way_119to3way_104_0" departPos="5.10" departSpeed="0.00" departDelay="0.42" arrival="35.00" arrivalLane="88_3way_74to3way_59_0" arrivalPos="85.60" arrivalSpeed="12.94" duration="34.00" routeLength="380.50" waitingTime="0.00" waitingCount="0" stopTime="0.00" timeLoss="4.49" rerouteNo="0" devices="tripinfo_7" vType="DEFAULT_VEHTYPE" speedFactor="0.95" vaporized=""/>
    <tripinfo id="331" depart="28.00" departLane="233_4way_168to4way_183_0" departPos="5.10" departSpeed="0.00" departDelay="0.43" arrival="38.00" arrivalLane="233_4way_168to4way_183_0" arrivalPos="85.60" arrivalSpeed="12.68" duration="10.00" routeLength="80.50" waitingTime="0.00" waitingCount="0" stopTime="0.00" timeLoss="3.20" rerouteNo="0" devices="tripinfo_331" vType="DEFAULT_VEHTYPE" speedFactor="0.94" vaporized=""/>
    <tripinfo id="350" depart="30.00" departLane="8_3way_104to3way_89_0" departPos="5.10" departSpeed="0.00" departDelay="0.84" arrival="39.00" arrivalLane="8_3way_104to3way_89_0" arrivalPos="85.60" arrivalSpeed="13.90" duration="9.00" routeLength="80.50" waitingTime="0.00" waitingCount="0" stopTime="0.00" timeLoss="3.21" rerouteNo="0" devices="tripinfo_350" vType="DEFAULT_VEHTYPE" speedFactor="1.07" vaporized=""/>
    <tripinfo id="317" depart="27.00" departLane="37_3way_179to3way_194_0" departPos="5.10" departSpeed="0.00" departDelay="0.59" arrival="43.00" arrivalLane="41_3way_194to3way_209_0" arrivalPos="85.60" arrivalSpeed="14.88" duration="16.00" routeLength="180.50" waitingTime="0.00" waitingCount="0" stopTime="0.00" timeLoss="3.80" rerouteNo="0" devices="tripinfo_317" vType="DEFAULT_VEHTYPE" speedFactor="1.11" vaporized=""/>
    <tripinfo id="204" depart="17.00" departLane="345_4way_64to4way_49_0" departPos="5.10" departSpeed="0.00" departDelay="0.01" arrival="46.00" arrivalLane="81_4way_19to3way_4_0" arrivalPos="85.60" arrivalSpeed="15.35" duration="29.00" routeLength="380.50" waitingTime="0.00" waitingCount="0" stopTime="0.00" timeLoss="4.09" rerouteNo="0" devices="tripinfo_204" vType="DEFAULT_VEHTYPE" speedFactor="1.12" vaporized=""/>
    <tripinfo id="430" depart="36.00" departLane="228_4way_167to4way_166_0" departPos="5.10" departSpeed="0.00" departDelay="0.18" arrival="46.00" arrivalLane="228_4way_167to4way_166_0" arrivalPos="85.60" arrivalSpeed="11.79" duration="10.00" routeLength="80.50" waitingTime="0.00" waitingCount="0" stopTime="0.00" timeLoss="2.93" rerouteNo="0" devices="tripinfo_430" vType="DEFAULT_VEHTYPE" speedFactor="0.90" vaporized=""/>
    <tripinfo id="78" depart="7.00" departLane="187_4way_141to4way_156_0" departPos="5.10" departSpeed="0.00" departDelay="0.50" arrival="47.00" arrivalLane="217_4way_159to4way_160_0" arrivalPos="85.60" arrivalSpeed="13.85" duration="40.00" routeLength="475.13" waitingTime="0.00" waitingCount="0" stopTime="0.00" timeLoss="6.14" rerouteNo="0" devices="tripinfo_78" vType="DEFAULT_VEHTYPE" speedFactor="1.03" vaporized=""/>
    <tripinfo id="455" depart="38.00" departLane="28_3way_149to4way_148_0" departPos="5.10" departSpeed="0.00" departDelay="0.10" arrival="48.00" arrivalLane="28_3way_149to4way_148_0" arrivalPos="85.60" arrivalSpeed="14.85" duration="10.00" routeLength="80.50" waitingTime="0.00" waitingCount="0" stopTime="0.00" timeLoss="3.65" rerouteNo="0" devices="tripinfo_455" vType="DEFAULT_VEHTYPE" speedFactor="1.08" vaporized=""/>
    <tripinfo id="342" depart="29.00" departLane="243_4way_172to4way_187_0" departPos="5.10" departSpeed="0.00" departDelay="0.51" arrival="54.00" arrivalLane="292_4way_202to4way_203_0" arrivalPos="85.60" arrivalSpeed="14.45" duration="25.00" routeLength="275.13" waitingTime="0.00" waitingCount="0" stopTime="0.00" timeLoss="5.42" rerouteNo="0" devices="tripinfo_342" vType="DEFAULT_VEHTYPE" speedFactor="1.06" vaporized=""/>
    <tripinfo id="548" depart="46.00" departLane="414_4way_96to4way_97_0" departPos="5.10" departSpeed="0.00" departDelay="0.35" arrival="56.00" arrivalLane="414_4way_96to4way_97_0" arrivalPos="85.60" arrivalSpeed="12.81" duration="10.00" routeLength="80.50" waitingTime="0.00" waitingCount="0" stopTime="0.00" timeLoss="3.23" rerouteNo="0" devices="tripinfo_548" vType="DEFAULT_VEHTYPE" speedFactor="0.97" vaporized=""/>
    <tripinfo id="530" depart="47.00" departLane="45_3way_3to3way_2_0" departPos="5.10" departSpeed="0.00" departDelay="2.85" arrival="57.00" arrivalLane="45_3way_3to3way_2_0" arrivalPos="85.60" arrivalSpeed="11.66" duration="10.00" routeLength="80.50" waitingTime="0.00" waitingCount="0" stopTime="0.00" timeLoss="3.12" rerouteNo="0" devices="tripinfo_530" vType="DEFAULT_VEHTYPE" speedFactor="0.85" vaporized=""/>
    <tripinfo id="359" depart="30.00" departLane="223_4way_162to4way_161_0" departPos="5.10" departSpeed="0.00" departDelay="0.09" arrival="59.00" arrivalLane="217_4way_160to4way_159_0" arrivalPos="85.60" arrivalSpeed="5.94" duration="29.00" routeLength="280.50" waitingTime="0.00" waitingCount="0" stopTime="0.00" timeLoss="7.40" rerouteNo="0" devices="tripinfo_359" vType="DEFAULT_VEHTYPE" speedFactor="0.94" vaporized=""/>
    <tripinfo id="592" depart="50.00" departLane="302_4way_23to4way_24_0" departPos="5.10" departSpeed="0.00" departDelay="0.69" arrival="59.00" arrivalLane="302_4way_23to4way_24_0" arrivalPos="85.60" arrivalSpeed="14.24" duration="9.00" routeLength="80.50" waitingTime="0.00" waitingCount="0" stopTime="0.00" timeLoss="2.99" rerouteNo="0" devices="tripinfo_592" vType="DEFAULT_VEHTYPE" speedFactor="1.05" vaporized=""/>
    <tripinfo id="517" depart="44.00" departLane="119_4way_106to4way_91_0" departPos="5.10" departSpeed="0.00" departDelay="0.93" arrival="61.00" arrivalLane="389_4way_91to4way_76_0" arrivalPos="85.60" arrivalSpeed="12.41" duration="17.00" routeLength="180.50" waitingTime="0.00" waitingCount="0" stopTime="0.00" timeLoss="3.60" rerouteNo="0" devices="tripinfo_517" vType="DEFAULT_VEHTYPE" speedFactor="0.99" vaporized=""/>
    <tripinfo id="235" depart="20.00" departLane="221_4way_161to4way_160_0" departPos="5.10" departSpeed="0.00" departDelay="0.42" arrival="63.00" arrivalLane="214_4way_157to4way_172_0" arrivalPos="85.60" arrivalSpeed="13.07" duration="43.00" routeLength="475.13" waitingTime="0.00" waitingCount="0" stopTime="0.00" timeLoss="5.91" rerouteNo="0" devices="tripinfo_235" vType="DEFAULT_VEHTYPE" speedFactor="0.95" vaporized=""/>
    <tripinfo id="535" depart="45.00" departLane="36_3way_165to4way_166_0" departPos="5.10" departSpeed="0.00" departDelay="0.43" arrival="65.00" arrivalLane="202_4way_166to4way_151_0" arrivalPos="85.60" arrivalSpeed="12.20" duration="20.00" routeLength="175.13" waitingTime="0.00" waitingCount="0" stopTime="0.00" timeLoss="5.11" rerouteNo="0" devices="tripinfo_535" vType="DEFAULT_VEHTYPE" speedFactor="0.96" vaporized=""/>
    <tripinfo id="593" depart="50.00" departLane="224_4way_161to4way_176_0" departPos="5.10" departSpeed="0.00" departDelay="0.60" arrival="69.00" arrivalLane="250_4way_176to4way_177_0" arrivalPos="85.60" arrivalSpeed="13.67" duration="19.00" routeLength="175.13" waitingTime="0.00" waitingCount="0" stopTime="0.00" timeLoss="5.42" rerouteNo="0" devices="tripinfo_593" vType="DEFAULT_VEHTYPE" speedFactor="1.01" vaporized=""/>
    <tripinfo id="18" depart="5.00" departLane="137_4way_112to4way_97_0" departPos="5.10" departSpeed="0.00" departDelay="3.50" arrival="70.00" arrivalLane="137_4way_112to4way_97_0" arrivalPos="85.60" arrivalSpeed="4.88" duration="65.00" routeLength="80.50" waitingTime="51.00" waitingCount="1" stopTime="0.00" timeLoss="58.86" rerouteNo="0" devices="tripinfo_18" vType="DEFAULT_VEHTYPE" speedFactor="0.96" vaporized=""/>
    <tripinfo id="249" depart="21.00" departLane="368_4way_78to4way_63_0" departPos="5.10" departSpeed="0.00" departDelay="0.26" arrival="70.00" arrivalLane="365_4way_63to4way_62_0" arrivalPos="85.60" arrivalSpeed="5.37" duration="49.00" routeLength="175.13" waitingTime="25.00" waitingCount="1" stopTime="0.00" timeLoss="37.13" rerouteNo="0" devices="tripinfo_249" vType="DEFAULT_VEHTYPE" speedFactor="1.12" vaporized=""/>
    <tripinfo id="538" depart="45.00" departLane="265_4way_185to4way_186_0" departPos="5.10" departSpeed="0.00" departDelay="0.18" arrival="70.00" arrivalLane="267_4way_186to4way_187_0" arrivalPos="85.60" arrivalSpeed="4.60" duration="25.00" routeLength="180.50" waitingTime="5.00" waitingCount="1" stopTime="0.00" timeLoss="12.39" rerouteNo="0" devices="tripinfo_538" vType="DEFAULT_VEHTYPE" speedFactor="1.03" vaporized=""/>
    <tripinfo id="167" depart="16.00" departLane="357_4way_55to4way_70_0" departPos="5.10" departSpeed="0.00" departDelay="2.09" arrival="71.00" arrivalLane="357_4way_55to4way_70_0" arrivalPos="85.60" arrivalSpeed="6.18" duration="55.00" routeLength="80.50" waitingTime="39.00" waitingCount="1" stopTime="0.00" timeLoss="47.71" rerouteNo="0" devices="tripinfo_167" vType="DEFAULT_VEHTYPE" speedFactor="0.85" vaporized=""/>
    <tripinfo id="255" depart="22.00" departLane="165_4way_128to4way_129_0" departPos="5.10" departSpeed="0.00" departDelay="0.76" arrival="71.00" arrivalLane="165_4way_128to4way_129_0" arrivalPos="85.60" arrivalSpeed="6.40" duration="49.00" routeLength="80.50" waitingTime="32.00" waitingCount="1" stopTime="0.00" timeLoss="40.85" rerouteNo="0" devices="tripinfo_255" vType="DEFAULT_VEHTYPE" speedFactor="0.76" vaporized=""/>
    <tripinfo id="673" depart="57.00" departLane="316_4way_47to4way_32_0" departPos="5.10" departSpeed="0.00" departDelay="0.94" arrival="74.00" arrivalLane="237_4way_32to4way_17_0" arrivalPos="85.60" arrivalSpeed="13.87" duration="17.00" routeLength="180.50" waitingTime="0.00" waitingCount="0" stopTime="0.00" timeLoss="4.51" rerouteNo="0" devices="tripinfo_673" vType="DEFAULT_VEHTYPE" speedFactor="1.04" vaporized=""/>
    <tripinfo id="678" depart="59.00" departLane="304_4way_25to4way_24_0" departPos="5.10" departSpeed="0.00" departDelay="2.52" arrival="75.00" arrivalLane="304_4way_25to4way_24_0" arrivalPos="85.60" arrivalSpeed="10.72" duration="16.00" routeLength="80.50" waitingTime="0.00" waitingCount="0" stopTime="0.00" timeLoss="9.17" rerouteNo="0" devices="tripinfo_678" vType="DEFAULT_VEHTYPE" speedFactor="0.94" vaporized=""/>
    <tripinfo id="378" depart="32.00" departLane="391_4way_92to4way_77_0" departPos="5.10" departSpeed="0.00" departDelay="0.51" arrival="76.00" arrivalLane="338_4way_47to4way_46_0" arrivalPos="85.60" arrivalSpeed="13.23" duration="44.00" routeLength="375.13" waitingTime="9.00" waitingCount="1" stopTime="0.00" timeLoss="17.25" rerouteNo="0" devices="tripinfo_378" vType="DEFAULT_VEHTYPE" speedFactor="1.03" vaporized=""/>
    <tripinfo id="73" depart="7.00" departLane="199_4way_147to4way_162_0" departPos="5.10" departSpeed="0.00" departDelay="0.92" arrival="77.00" arrivalLane="34_4way_163to3way_164_0" arrivalPos="85.60" arrivalSpeed="12.80" duration="70.00" routeLength="275.13" waitingTime="38.00" waitingCount="1" stopTime="0.00" timeLoss="48.42" rerouteNo="0" devices="tripinfo_73" vType="DEFAULT_VEHTYPE" speedFactor="0.98" vaporized=""/>
    <tripinfo id="93" depart="8.00" departLane="298_4way_22to4way_21_0" departPos="5.10" departSpeed="0.00" departDelay="0.25" arrival="77.00" arrivalLane="299_4way_21to4way_36_0" arrivalPos="85.60" arrivalSpeed="13.83" duration="69.00" routeLength="175.13" waitingTime="47.00" waitingCount="1" stopTime="0.00" timeLoss="55.44" rerouteNo="0" devices="tripinfo_93" vType="DEFAULT_VEHTYPE" speedFactor="1.00" vaporized=""/>
    <tripinfo id="273" depart="23.00" departLane="178_4way_137to4way_138_0" departPos="5.10" departSpeed="0.00" departDelay="0.26" arrival="77.00" arrivalLane="182_4way_139to4way_140_0" arrivalPos="85.60" arrivalSpeed="13.91" duration="54.00" routeLength="280.50" waitingTime="23.00" waitingCount="1" stopTime="0.00" timeLoss="33.75" rerouteNo="0" devices="tripinfo_273" vType="DEFAULT_VEHTYPE" speedFactor="1.04" vaporized=""/>
    <tripinfo id="366" depart="31.00" departLane="139_4way_128to4way_113_0" departPos="5.10" departSpeed="0.00" departDelay="0.51" arrival="77.00" arrivalLane="413_4way_96to4way_95_0" arrivalPos="85.60" arrivalSpeed="13.06" duration="46.00" routeLength="475.13" waitingTime="1.00" waitingCount="1" stopTime="0.00" timeLoss="11.05" rerouteNo="0" devices="tripinfo_366" vType="DEFAULT_VEHTYPE" speedFactor="1.03" vaporized=""/>
    <tripinfo id="388" depart="33.00" departLane="384_4way_86to4way_71_0" departPos="5.10" departSpeed="0.00" departDelay="0.68" arrival="77.00" arrivalLane="356_4way_56to4way_55_0" arrivalPos="85.60" arrivalSpeed="12.14" duration="44.00" routeLength="275.13" waitingTime="13.00" waitingCount="1" stopTime="0.00" timeLoss="21.87" rerouteNo="0" devices="tripinfo_388" vType="DEFAULT_VEHTYPE" speedFactor="0.95" vaporized=""/>
    <tripinfo id="652" depart="55.00" departLane="306_4way_25to4way_26_0" departPos="5.10" departSpeed="0.00" departDelay="0.69" arrival="77.00" arrivalLane="308_4way_26to4way_27_0" arrivalPos="85.60" arrivalSpeed="13.37" duration="22.00" routeLength="180.50" waitingTime="0.00" waitingCount="0" stopTime="0.00" timeLoss="8.12" rerouteNo="0" devices="tripinfo_652" vType="DEFAULT_VEHTYPE" speedFactor="0.97" vaporized=""/>
    <tripinfo id="83" depart="7.00" departLane="256_4way_33to4way_18_0" departPos="5.10" departSpeed="0.00" departDelay="0.09" arrival="78.00" arrivalLane="77_4way_18to3way_3_0" arrivalPos="85.60" arrivalSpeed="12.27" duration="71.00" routeLength="180.50" waitingTime="48.00" waitingCount="1" stopTime="0.00" timeLoss="56.05" rerouteNo="0" devices="tripinfo_83" vType="DEFAULT_VEHTYPE" speedFactor="0.93" vaporized=""/>
    <tripinfo id="127" depart="13.00" departLane="8_3way_104to3way_89_0" departPos="5.10" departSpeed="0.00" departDelay="2.42" arrival="78.00" arrivalLane="408_4way_88to4way_87_0" arrivalPos="85.60" arrivalSpeed="8.37" duration="65.00" routeLength="275.13" waitingTime="28.00" waitingCount="1" stopTime="0.00" timeLoss="44.25" rerouteNo="0" devices="tripinfo_127" vType="DEFAULT_VEHTYPE" speedFactor="1.00" vaporized=""/>
    <tripinfo id="186" depart="16.00" departLane="243_4way_172to4way_187_0" departPos="5.10" departSpeed="0.00" departDelay="0.51" arrival="78.00" arrivalLane="271_4way_188to4way_189_0" arrivalPos="85.60" arrivalSpeed="10.90" duration="62.00" routeLength="275.13" waitingTime="27.00" waitingCount="1" stopTime="0.00" timeLoss="37.94" rerouteNo="0" devices="tripinfo_186" vType="DEFAULT_VEHTYPE" speedFactor="0.87" vaporized=""/>
    <tripinfo id="267" depart="24.00" departLane="242_4way_173to4way_172_0" departPos="5.10" departSpeed="0.00" departDelay="1.76" arrival="78.00" arrivalLane="240_4way_172to4way_171_0" arrivalPos="85.60" arrivalSpeed="14.99" duration="54.00" routeLength="180.50" waitingTime="32.00" waitingCount="1" stopTime="0.00" timeLoss="42.26" rerouteNo="0" devices="tripinfo_267" vType="DEFAULT_VEHTYPE" speedFactor="1.11" vaporized=""/>
    <tripinfo id="209" depart="18.00" departLane="227_4way_178to4way_163_0" departPos="5.10" departSpeed="0.00" departDelay="0.59" arrival="79.00" arrivalLane="175_4way_148to4way_133_0" arrivalPos="85.60" arrivalSpeed="12.20" duration="61.00" routeLength="280.50" waitingTime="28.00" waitingCount="1" stopTime="0.00" timeLoss="39.01" rerouteNo="0" devices="tripinfo_209" vType="DEFAULT_VEHTYPE" speedFactor="0.95" vaporized=""/>
    <tripinfo id="270" depart="23.00" departLane="301_4way_22to4way_37_0" departPos="5.10" departSpeed="0.00" departDelay="0.51" arrival="79.00" arrivalLane="326_4way_37to4way_52_0" arrivalPos="85.60" arrivalSpeed="13.58" duration="56.00" routeLength="180.50" waitingTime="32.00" waitingCount="1" stopTime="0.00" timeLoss="43.63" rerouteNo="0" devices="tripinfo_270" vType="DEFAULT_VEHTYPE" speedFactor="1.09" vaporized=""/>
    <tripinfo id="272" depart="23.00" departLane="246_4way_175to4way_174_0" departPos="5.10" departSpeed="0.00" departDelay="0.34" arrival="79.00" arrivalLane="244_4way_174to4way_173_0" arrivalPos="85.60" arrivalSpeed="9.47" duration="56.00" routeLength="180.50" waitingTime="32.00" waitingCount="1" stopTime="0.00" timeLoss="37.81" rerouteNo="0" devices="tripinfo_272" vType="DEFAULT_VEHTYPE" speedFactor="0.72" vaporized=""/>
    <tripinfo id="312" depart="26.00" departLane="272_4way_188to4way_203_0" departPos="5.10" departSpeed="0.00" departDelay="0.01" arrival="79.00" arrivalLane="293_4way_203to4way_204_0" arrivalPos="85.60" arrivalSpeed="13.51" duration="53.00" routeLength="175.13" waitingTime="30.00" waitingCount="1" stopTime="0.00" timeLoss="39.16" rerouteNo="0" devices="tripinfo_312" vType="DEFAULT_VEHTYPE" speedFactor="0.98" vaporized=""/>
    <tripinfo id="489" depart="41.00" departLane="194_4way_145to4way_146_0" departPos="5.10" departSpeed="0.00" departDelay="0.27" arrival="79.00" arrivalLane="196_4way_146to4way_147_0" arrivalPos="85.60" arrivalSpeed="15.94" duration="38.00" routeLength="180.50" waitingTime="15.00" waitingCount="1" stopTime="0.00" timeLoss="25.77" rerouteNo="0" devices="tripinfo_489" vType="DEFAULT_VEHTYPE" speedFactor="1.15" vaporized=""/>
    <tripinfo id="445" depart="38.00" departLane="184_4way_141to4way_140_0" departPos="5.10" departSpeed="0.00" departDelay="0.93" arrival="80.00" arrivalLane="182_4way_140to4way_139_0" arrivalPos="85.60" arrivalSpeed="7.97" duration="42.00" routeLength="180.50" waitingTime="18.00" waitingCount="1" stopTime="0.00" timeLoss="28.99" rerouteNo="0" devices="tripinfo_445" vType="DEFAULT_VEHTYPE" speedFactor="1.02" vaporized=""/>
    <tripinfo id="606" depart="51.00" departLane="160_4way_125to4way_140_0" departPos="5.10" departSpeed="0.00" departDelay="0.52" arrival="80.00" arrivalLane="186_4way_141to4way_142_0" arrivalPos="85.60" arrivalSpeed="11.66" duration="29.00" routeLength="275.13" waitingTime="0.00" waitingCount="0" stopTime="0.00" timeLoss="5.64" rerouteNo="0" devices="tripinfo_606" vType="DEFAULT_VEHTYPE" speedFactor="0.90" vaporized=""/>
    <tripinfo id="247" depart="22.00" departLane="232_4way_168to4way_169_0" departPos="5.10" departSpeed="0.00" departDelay="1.42" arrival="81.00" arrivalLane="208_4way_169to4way_154_0" arrivalPos="85.60" arrivalSpeed="14.75" duration="59.00" routeLength="175.13" waitingTime="36.00" waitingCount="1" stopTime="0.00" timeLoss="46.09" rerouteNo="0" devices="tripinfo_247" vType="DEFAULT_VEHTYPE" speedFactor="1.07" vaporized=""/>
    <tripinfo id="323" depart="27.00" departLane="28_3way_149to4way_148_0" departPos="5.10" departSpeed="0.00" departDelay="0.09" arrival="81.00" arrivalLane="196_4way_147to4way_146_0" arrivalPos="85.60" arrivalSpeed="15.14" duration="54.00" routeLength="280.50" waitingTime="23.00" waitingCount="1" stopTime="0.00" timeLoss="35.88" rerouteNo="0" devices="tripinfo_323" vType="DEFAULT_VEHTYPE" speedFactor="1.15" vaporized=""/>
    <tripinfo id="316" depart="27.00" departLane="362_4way_73to4way_58_0" departPos="5.10" departSpeed="0.00" departDelay="0.68" arrival="82.00" arrivalLane="331_4way_41to4way_40_0" arrivalPos="85.60" arrivalSpeed="12.05" duration="55.00" routeLength="475.13" waitingTime="1.00" waitingCount="1" stopTime="0.00" timeLoss="15.10" rerouteNo="0" devices="tripinfo_316" vType="DEFAULT_VEHTYPE" speedFactor="0.89" vaporized=""/>
    <tripinfo id="784" depart="66.00" departLane="121_4way_122to4way_107_0" departPos="5.10" departSpeed="0.00" departDelay="0.69" arrival="82.00" arrivalLane="122_4way_107to4way_92_0" arrivalPos="85.60" arrivalSpeed="14.28" duration="16.00" routeLength="180.50" waitingTime="0.00" waitingCount="0" stopTime="0.00" timeLoss="3.43" rerouteNo="0" devices="tripinfo_784" vType="DEFAULT_VEHTYPE" speedFactor="1.04" vaporized=""/>
    <tripinfo id="853" depart="72.00" departLane="236_4way_18to4way_17_0" departPos="5.10" departSpeed="0.00" departDelay="0.94" arrival="82.00" arrivalLane="236_4way_18to4way_17_0" arrivalPos="85.60" arrivalSpeed="13.28" duration="10.00" routeLength="80.50" waitingTime="0.00" waitingCount="0" stopTime="0.00" timeLoss="3.24" rerouteNo="0" devices="tripinfo_853" vType="DEFAULT_VEHTYPE" speedFactor="0.98" vaporized=""/>
    <tripinfo id="481" depart="42.00" departLane="391_4way_77to4way_92_0" departPos="5.10" departSpeed="0.00" departDelay="1.93" arrival="83.00" arrivalLane="122_4way_92to4way_107_0" arrivalPos="85.60" arrivalSpeed="13.21" duration="41.00" routeLength="180.50" waitingTime="16.00" waitingCount="1" stopTime="0.00" timeLoss="27.22" rerouteNo="0" devices="tripinfo_481" vType="DEFAULT_VEHTYPE" speedFactor="0.97" vaporized=""/>
    <tripinfo id="609" depart="51.00" departLane="73_3way_223to4way_208_0" departPos="5.10" departSpeed="0.00" departDelay="0.27" arrival="83.00" arrivalLane="283_4way_208to4way_193_0" arrivalPos="85.60" arrivalSpeed="12.47" duration="32.00" routeLength="180.50" waitingTime="7.00" waitingCount="1" stopTime="0.00" timeLoss="18.79" rerouteNo="0" devices="tripinfo_609" vType="DEFAULT_VEHTYPE" speedFactor="1.00" vaporized=""/>
    <tripinfo id="364" depart="31.00" departLane="125_4way_93to4way_108_0" departPos="5.10" departSpeed="0.00" departDelay="0.68" arrival="85.00" arrivalLane="126_4way_109to4way_110_0" arrivalPos="85.60" arrivalSpeed="12.56" duration="54.00" routeLength="275.13" waitingTime="23.00" waitingCount="1" stopTime="0.00" timeLoss="32.17" rerouteNo="0" devices="tripinfo_364" vType="DEFAULT_VEHTYPE" speedFactor="0.96" vaporized=""/>
    <tripinfo id="396" depart="33.00" departLane="281_4way_192to4way_193_0" departPos="5.10" departSpeed="0.00" departDelay="0.01" arrival="85.00" arrivalLane="175_4way_148to4way_133_0" arrivalPos="85.60" arrivalSpeed="7.98" duration="52.00" routeLength="475.13" waitingTime="0.00" waitingCount="0" stopTime="0.00" timeLoss="17.53" rerouteNo="0" devices="tripinfo_396" vType="DEFAULT_VEHTYPE" speedFactor="1.02" vaporized=""/>
    <tripinfo id="149" depart="13.00" departLane="116_4way_88to4way_103_0" departPos="5.10" departSpeed="0.00" departDelay="0.59" arrival="86.00" arrivalLane="150_4way_118to4way_133_0" arrivalPos="85.60" arrivalSpeed="12.01" duration="73.00" routeLength="280.50" waitingTime="42.00" waitingCount="1" stopTime="0.00" timeLoss="51.02" rerouteNo="0" devices="tripinfo_149" vType="DEFAULT_VEHTYPE" speedFactor="0.95" vaporized=""/>
    <tripinfo id="223" depart="19.00" departLane="114_4way_87to4way_102_0" departPos="5.10" departSpeed="0.00" departDelay="0.42" arrival="87.00" arrivalLane="148_4way_117to4way_118_0" arrivalPos="85.60" arrivalSpeed="13.50" duration="68.00" routeLength="275.13" waitingTime="36.00" waitingCount="1" stopTime="0.00" timeLoss="47.45" rerouteNo="0" devices="tripinfo_223" vType="DEFAULT_VEHTYPE" speedFactor="1.03" vaporized=""/>
    <tripinfo id="16" depart="2.00" departLane="184_4way_141to4way_140_0" departPos="5.10" departSpeed="0.00" departDelay="0.67" arrival="88.00" arrivalLane="183_4way_139to4way_154_0" arrivalPos="85.60" arrivalSpeed="12.13" duration="86.00" routeLength="275.13" waitingTime="52.00" waitingCount="1" stopTime="0.00" timeLoss="62.58" rerouteNo="0" devices="tripinfo_16" vType="DEFAULT_VEHTYPE" speedFactor="0.90" vaporized=""/>
    <tripinfo id="446" depart="38.00" departLane="130_4way_110to4way_125_0" departPos="5.10" departSpeed="0.00" departDelay="0.85" arrival="88.00" arrivalLane="161_4way_126to4way_127_0" arrivalPos="85.60" arrivalSpeed="13.62" duration="50.00" routeLength="275.13" waitingTime="20.00" waitingCount="1" stopTime="0.00" timeLoss="29.80" rerouteNo="0" devices="tripinfo_446" vType="DEFAULT_VEHTYPE" speedFactor="1.07" vaporized=""/>
    <tripinfo id="310" depart="26.00" departLane="246_4way_175to4way_174_0" departPos="5.10" departSpeed="0.00" departDelay="0.18" arrival="89.00" arrivalLane="242_4way_173to4way_172_0" arrivalPos="85.60" arrivalSpeed="12.46" duration="63.00" routeLength="280.50" waitingTime="29.00" waitingCount="1" stopTime="0.00" timeLoss="41.04" rerouteNo="0" devices="tripinfo_310" vType="DEFAULT_VEHTYPE" speedFactor="0.94" vaporized=""/>
    <tripinfo id="142" depart="12.00" departLane="62_3way_217to4way_202_0" departPos="5.10" departSpeed="0.00" departDelay="0.17" arrival="91.00" arrivalLane="259_4way_183to4way_182_0" arrivalPos="85.60" arrivalSpeed="14.05" duration="79.00" routeLength="675.13" waitingTime="19.00" waitingCount="1" stopTime="0.00" timeLoss="33.07" rerouteNo="0" devices="tripinfo_142" vType="DEFAULT_VEHTYPE" speedFactor="1.09" vaporized=""/>
    <tripinfo id="456" depart="38.00" departLane="186_4way_141to4way_142_0" departPos="5.10" departSpeed="0.00" departDelay="0.01" arrival="91.00" arrivalLane="194_4way_145to4way_146_0" arrivalPos="85.60" arrivalSpeed="13.25" duration="53.00" routeLength="480.50" waitingTime="8.00" waitingCount="1" stopTime="0.00" timeLoss="19.56" rerouteNo="0" devices="tripinfo_456" vType="DEFAULT_VEHTYPE" speedFactor="1.05" vaporized=""/>