<?xml version="1.0" encoding="UTF-8"?>

<!-- generated on 2023-08-20 06:04:23 by Eclipse SUMO sumo Version 1.12.0
<configuration xmlns:xsi="http://www.w3.org/2001/XMLSchema-instance" xsi:noNamespaceSchemaLocation="http://sumo.dlr.de/xsd/sumoConfiguration.xsd">

    <input>
        <net-file value="../../data_generation/sq.net.xml"/>
        <route-files value="../../data_generation/sq.rou.xml"/>
    </input>

    <output>
        <tripinfo-output value="tripinfo.xml"/>
        <statistic-output value="statistic.xml"/>
    </output>

    <time>
        <begin value="0"/>
        <end value="3600"/>
    </time>

    <processing>
        <time-to-teleport value="-1"/>
    </processing>

    <traci_server>
        <remote-port value="40807"/>
    </traci_server>

    <random_number>
        <seed value="1395"/>
    </random_number>

    <gui_only>
        <gui-settings-file value="../../data_generation/view_HY_0402.xml"/>
    </gui_only>

</configuration>
-->

<tripinfos xmlns:xsi="http://www.w3.org/2001/XMLSchema-instance" xsi:noNamespaceSchemaLocation="http://sumo.dlr.de/xsd/tripinfo_file.xsd">
    <tripinfo id="22" depart="2.00" departLane="1159_4way_90to4way_65_0" departPos="5.10" departSpeed="0.00" departDelay="0.90" arrival="19.00" arrivalLane="777_4way_65to4way_40_0" arrivalPos="85.60" arrivalSpeed="13.81" duration="17.00" routeLength="180.50" waitingTime="0.00" waitingCount="0" stopTime="0.00" timeLoss="3.11" rerouteNo="0" devices="tripinfo_22" vType="DEFAULT_VEHTYPE" speedFactor="1.00" vaporized=""/>
    <tripinfo id="198" depart="10.00" departLane="689_4way_381to4way_356_0" departPos="5.10" departSpeed="0.00" departDelay="0.10" arrival="20.00" arrivalLane="689_4way_381to4way_356_0" arrivalPos="85.60" arrivalSpeed="11.73" duration="10.00" routeLength="80.50" waitingTime="0.00" waitingCount="0" stopTime="0.00" timeLoss="2.99" rerouteNo="0" devices="tripinfo_198" vType="DEFAULT_VEHTYPE" speedFactor="0.87" vaporized=""/>
    <tripinfo id="18" depart="4.00" departLane="754_4way_413to4way_388_0" departPos="5.10" departSpeed="0.00" departDelay="3.10" arrival="30.00" arrivalLane="654_4way_363to4way_338_0" arrivalPos="85.60" arrivalSpeed="12.99" duration="26.00" routeLength="280.50" waitingTime="0.00" waitingCount="0" stopTime="0.00" timeLoss="3.99" rerouteNo="0" devices="tripinfo_18" vType="DEFAULT_VEHTYPE" speedFactor="0.96" vaporized=""/>
    <tripinfo id="213" depart="11.00" departLane="97_3way_474to3way_449_0" departPos="5.10" departSpeed="0.00" departDelay="0.35" arrival="32.00" arrivalLane="98_3way_449to4way_448_0" arrivalPos="85.60" arrivalSpeed="12.30" duration="21.00" routeLength="175.13" waitingTime="0.00" waitingCount="0" stopTime="0.00" timeLoss="5.85" rerouteNo="0" devices="tripinfo_213" vType="DEFAULT_VEHTYPE" speedFactor="0.91" vaporized=""/>
    <tripinfo id="332" depart="17.00" departLane="941_4way_482to4way_507_0" departPos="5.10" departSpeed="0.00" departDelay="0.40" arrival="36.00" arrivalLane="986_4way_507to4way_532_0" arrivalPos="85.60" arrivalSpeed="11.52" duration="19.00" routeLength="180.50" waitingTime="0.00" waitingCount="0" stopTime="0.00" timeLoss="2.99" rerouteNo="0" devices="tripinfo_332" vType="DEFAULT_VEHTYPE" speedFactor="0.83" vaporized=""/>
    <tripinfo id="576" depart="29.00" departLane="302_4way_154to4way_153_0" departPos="5.10" departSpeed="0.00" departDelay="0.20" arrival="38.00" arrivalLane="302_4way_154to4way_153_0" arrivalPos="85.60" arrivalSpeed="12.90" duration="9.00" routeLength="80.50" waitingTime="0.00" waitingCount="0" stopTime="0.00" timeLoss="2.93" rerouteNo="0" devices="tripinfo_576" vType="DEFAULT_VEHTYPE" speedFactor="1.00" vaporized=""/>
    <tripinfo id="351" depart="21.00" departLane="163_3way_617to3way_618_0" departPos="5.10" departSpeed="0.00" departDelay="3.45" arrival="41.00" arrivalLane="165_3way_618to3way_619_0" arrivalPos="85.60" arrivalSpeed="11.04" duration="20.00" routeLength="180.50" waitingTime="0.00" waitingCount="0" stopTime="0.00" timeLoss="4.10" rerouteNo="0" devices="tripinfo_351" vType="DEFAULT_VEHTYPE" speedFactor="0.85" vaporized=""/>
    <tripinfo id="610" depart="31.00" departLane="626_4way_323to4way_348_0" departPos="5.10" departSpeed="0.00" departDelay="0.50" arrival="41.00" arrivalLane="626_4way_323to4way_348_0" arrivalPos="85.60" arrivalSpeed="12.10" duration="10.00" routeLength="80.50" waitingTime="0.00" waitingCount="0" stopTime="0.00" timeLoss="2.89" rerouteNo="0" devices="tripinfo_610" vType="DEFAULT_VEHTYPE" speedFactor="0.93" vaporized=""/>
    <tripinfo id="370" depart="19.00" departLane="297_4way_148to4way_173_0" departPos="5.10" departSpeed="0.00" departDelay="0.50" arrival="46.00" arrivalLane="42_4way_198to3way_199_0" arrivalPos="85.60" arrivalSpeed="12.94" duration="27.00" routeLength="275.13" waitingTime="0.00" waitingCount="0" stopTime="0.00" timeLoss="5.50" rerouteNo="0" devices="tripinfo_370" vType="DEFAULT_VEHTYPE" speedFactor="0.96" vaporized=""/>
    <tripinfo id="388" depart="20.00" departLane="362_4way_210to4way_185_0" departPos="5.10" departSpeed="0.00" departDelay="0.60" arrival="47.00" arrivalLane="314_4way_160to4way_159_0" arrivalPos="85.60" arrivalSpeed="12.11" duration="27.00" routeLength="275.13" waitingTime="0.00" waitingCount="0" stopTime="0.00" timeLoss="5.13" rerouteNo="0" devices="tripinfo_388" vType="DEFAULT_VEHTYPE" speedFactor="0.95" vaporized=""/>
    <tripinfo id="89" depart="5.00" departLane="39_3way_20to3way_19_0" departPos="5.10" departSpeed="0.00" departDelay="0.55" arrival="49.00" arrivalLane="30_3way_16to4way_41_0" arrivalPos="85.60" arrivalSpeed="12.56" duration="44.00" routeLength="475.13" waitingTime="0.00" waitingCount="0" stopTime="0.00" timeLoss="6.71" rerouteNo="0" devices="tripinfo_89" vType="DEFAULT_VEHTYPE" speedFactor="0.93" vaporized=""/>
    <tripinfo id="637" depart="32.00" departLane="286_4way_142to4way_167_0" departPos="5.10" departSpeed="0.00" departDelay="0.15" arrival="51.00" arrivalLane="330_4way_167to4way_168_0" arrivalPos="85.60" arrivalSpeed="12.57" duration="19.00" routeLength="175.13" waitingTime="0.00" waitingCount="0" stopTime="0.00" timeLoss="4.55" rerouteNo="0" devices="tripinfo_637" vType="DEFAULT_VEHTYPE" speedFactor="0.94" vaporized=""/>
    <tripinfo id="692" depart="35.00" departLane="650_4way_361to4way_336_0" departPos="5.10" departSpeed="0.00" departDelay="0.40" arrival="53.00" arrivalLane="647_4way_336to4way_335_0" arrivalPos="85.60" arrivalSpeed="14.89" duration="18.00" routeLength="175.13" waitingTime="0.00" waitingCount="0" stopTime="0.00" timeLoss="5.74" rerouteNo="0" devices="tripinfo_692" vType="DEFAULT_VEHTYPE" speedFactor="1.13" vaporized=""/>
    <tripinfo id="493" depart="25.00" departLane="617_4way_319to4way_344_0" departPos="5.10" departSpeed="0.00" departDelay="0.35" arrival="54.00" arrivalLane="716_4way_369to4way_370_0" arrivalPos="85.60" arrivalSpeed="13.03" duration="29.00" routeLength="275.13" waitingTime="0.00" waitingCount="0" stopTime="0.00" timeLoss="6.39" rerouteNo="0" devices="tripinfo_493" vType="DEFAULT_VEHTYPE" speedFactor="0.94" vaporized=""/>
    <tripinfo id="452" depart="23.00" departLane="923_4way_496to4way_471_0" departPos="5.10" departSpeed="0.00" departDelay="0.40" arrival="55.00" arrivalLane="820_4way_421to4way_420_0" arrivalPos="85.60" arrivalSpeed="14.21" duration="32.00" routeLength="375.13" waitingTime="0.00" waitingCount="0" stopTime="0.00" timeLoss="6.28" rerouteNo="0" devices="tripinfo_452" vType="DEFAULT_VEHTYPE" speedFactor="1.09" vaporized=""/>
    <tripinfo id="482" depart="25.00" departLane="638_4way_330to4way_355_0" departPos="5.10" departSpeed="0.00" departDelay="0.90" arrival="56.00" arrivalLane="787_4way_405to4way_430_0" arrivalPos="85.60" arrivalSpeed="13.95" duration="31.00" routeLength="380.50" waitingTime="0.00" waitingCount="0" stopTime="0.00" timeLoss="4.23" rerouteNo="0" devices="tripinfo_482" vType="DEFAULT_VEHTYPE" speedFactor="1.03" vaporized=""/>
    <tripinfo id="531" depart="27.00" departLane="176_3way_8to3way_7_0" departPos="5.10" departSpeed="0.00" departDelay="0.45" arrival="57.00" arrivalLane="89_3way_5to3way_4_0" arrivalPos="85.60" arrivalSpeed="14.72" duration="30.00" routeLength="380.50" waitingTime="0.00" waitingCount="0" stopTime="0.00" timeLoss="4.86" rerouteNo="0" devices="tripinfo_531" vType="DEFAULT_VEHTYPE" speedFactor="1.11" vaporized=""/>
    <tripinfo id="156" depart="8.00" departLane="157_3way_614to3way_615_0" departPos="5.10" departSpeed="0.00" departDelay="0.20" arrival="59.00" arrivalLane="167_3way_619to3way_620_0" arrivalPos="85.60" arrivalSpeed="11.57" duration="51.00" routeLength="580.50" waitingTime="0.00" waitingCount="0" stopTime="0.00" timeLoss="5.18" rerouteNo="0" devices="tripinfo_156" vType="DEFAULT_VEHTYPE" speedFactor="0.91" vaporized=""/>
    <tripinfo id="397" depart="20.00" departLane="296_4way_147to4way_172_0" departPos="5.10" departSpeed="0.00" departDelay="0.15" arrival="59.00" arrivalLane="475_4way_247to4way_248_0" arrivalPos="85.60" arrivalSpeed="13.81" duration="39.00" routeLength="475.13" waitingTime="0.00" waitingCount="0" stopTime="0.00" timeLoss="6.03" rerouteNo="0" devices="tripinfo_397" vType="DEFAULT_VEHTYPE" speedFactor="1.05" vaporized=""/>
    <tripinfo id="841" depart="43.00" departLane="45_3way_21to3way_20_0" departPos="5.10" departSpeed="0.00" departDelay="0.95" arrival="61.00" arrivalLane="46_3way_20to4way_45_0" arrivalPos="85.60" arrivalSpeed="14.02" duration="18.00" routeLength="175.13" waitingTime="0.00" waitingCount="0" stopTime="0.00" timeLoss="4.78" rerouteNo="0" devices="tripinfo_841" vType="DEFAULT_VEHTYPE" speedFactor="1.02" vaporized=""/>
    <tripinfo id="906" depart="46.00" departLane="1020_4way_547to4way_522_0" departPos="5.10" departSpeed="0.00" departDelay="0.70" arrival="63.00" arrivalLane="971_4way_522to4way_497_0" arrivalPos="85.60" arrivalSpeed="12.46" duration="17.00" routeLength="180.50" waitingTime="0.00" waitingCount="0" stopTime="0.00" timeLoss="3.06" rerouteNo="0" devices="tripinfo_906" vType="DEFAULT_VEHTYPE" speedFactor="0.95" vaporized=""/>
    <tripinfo id="662" depart="34.00" departLane="427_4way_245to4way_220_0" departPos="5.10" departSpeed="0.00" departDelay="0.90" arrival="68.00" arrivalLane="334_4way_170to4way_169_0" arrivalPos="85.60" arrivalSpeed="13.15" duration="34.00" routeLength="375.13" waitingTime="0.00" waitingCount="0" stopTime="0.00" timeLoss="5.90" rerouteNo="0" devices="tripinfo_662" vType="DEFAULT_VEHTYPE" speedFactor="0.98" vaporized=""/>
    <tripinfo id="24" depart="2.00" departLane="889_4way_481to4way_456_0" departPos="5.10" departSpeed="0.00" departDelay="0.80" arrival="69.00" arrivalLane="586_4way_306to4way_305_0" arrivalPos="85.60" arrivalSpeed="13.19" duration="67.00" routeLength="775.13" waitingTime="0.00" waitingCount="0" stopTime="0.00" timeLoss="8.42" rerouteNo="0" devices="tripinfo_24" vType="DEFAULT_VEHTYPE" speedFactor="0.97" vaporized=""/>
    <tripinfo id="163" depart="9.00" departLane="860_4way_465to4way_440_0" departPos="5.10" departSpeed="0.00" departDelay="0.85" arrival="70.00" arrivalLane="560_4way_315to4way_290_0" arrivalPos="85.60" arrivalSpeed="12.96" duration="61.00" routeLength="680.50" waitingTime="0.00" waitingCount="0" stopTime="0.00" timeLoss="8.54" rerouteNo="0" devices="tripinfo_163" vType="DEFAULT_VEHTYPE" speedFactor="0.94" vaporized=""/>
    <tripinfo id="115" depart="6.00" departLane="881_4way_452to4way_477_0" departPos="5.10" departSpeed="0.00" departDelay="0.25" arrival="71.00" arrivalLane="975_4way_502to4way_503_0" arrivalPos="85.60" arrivalSpeed="5.51" duration="65.00" routeLength="275.13" waitingTime="33.00" waitingCount="1" stopTime="0.00" timeLoss="42.60" rerouteNo="0" devices="tripinfo_115" vType="DEFAULT_VEHTYPE" speedFactor="0.92" vaporized=""/>
    <tripinfo id="1024" depart="52.00" departLane="54_3way_224to4way_223_0" departPos="5.10" departSpeed="0.00" departDelay="0.80" arrival="71.00" arrivalLane="54_3way_224to4way_223_0" arrivalPos="85.60" arrivalSpeed="6.43" duration="19.00" routeLength="80.50" waitingTime="5.00" waitingCount="1" stopTime="0.00" timeLoss="12.07" rerouteNo="0" devices="tripinfo_1024" vType="DEFAULT_VEHTYPE" speedFactor="0.89" vaporized=""/>
    <tripinfo id="303" depart="17.00" departLane="532_4way_278to4way_303_0" departPos="5.10" departSpeed="0.00" departDelay="1.85" arrival="72.00" arrivalLane="782_4way_403to4way_404_0" arrivalPos="85.60" arrivalSpeed="7.23" duration="55.00" routeLength="575.13" waitingTime="2.00" waitingCount="1" stopTime="0.00" timeLoss="13.40" rerouteNo="0" devices="tripinfo_303" vType="DEFAULT_VEHTYPE" speedFactor="1.02" vaporized=""/>
    <tripinfo id="972" depart="56.00" departLane="109_3way_6to3way_5_0" departPos="5.10" departSpeed="0.00" departDelay="7.40" arrival="72.00" arrivalLane="89_3way_5to3way_4_0" arrivalPos="85.60" arrivalSpeed="14.40" duration="16.00" routeLength="180.50" waitingTime="0.00" waitingCount="0" stopTime="0.00" timeLoss="4.17" rerouteNo="0" devices="tripinfo_972" vType="DEFAULT_VEHTYPE" speedFactor="1.12" vaporized=""/>
    <tripinfo id="779" depart="39.00" departLane="1069_4way_572to4way_547_0" departPos="5.10" departSpeed="0.00" departDelay="0.05" arrival="73.00" arrivalLane="1017_4way_522to4way_521_0" arrivalPos="85.60" arrivalSpeed="8.68" duration="34.00" routeLength="275.13" waitingTime="0.00" waitingCount="0" stopTime="0.00" timeLoss="13.97" rerouteNo="0" devices="tripinfo_779" vType="DEFAULT_VEHTYPE" speedFactor="1.04" vaporized=""/>
    <tripinfo id="1015" depart="51.00" departLane="61_3way_50to3way_25_0" departPos="5.10" departSpeed="0.00" departDelay="0.25" arrival="75.00" arrivalLane="2_3way_25to3way_1_0" arrivalPos="188.80" arrivalSpeed="13.90" duration="24.00" routeLength="283.70" waitingTime="0.00" waitingCount="0" stopTime="0.00" timeLoss="3.94" rerouteNo="0" devices="tripinfo_1015" vType="DEFAULT_VEHTYPE" speedFactor="1.06" vaporized=""/>
    <tripinfo id="176" depart="9.00" departLane="848_4way_460to4way_435_0" departPos="5.10" departSpeed="0.00" departDelay="0.20" arrival="77.00" arrivalLane="743_4way_384to4way_383_0" arrivalPos="85.60" arrivalSpeed="12.98" duration="68.00" routeLength="475.13" waitingTime="20.00" waitingCount="1" stopTime="0.00" timeLoss="31.28" rerouteNo="0" devices="tripinfo_176" vType="DEFAULT_VEHTYPE" speedFactor="0.97" vaporized=""/>
    <tripinfo id="187" depart="10.00" departLane="389_4way_201to4way_226_0" departPos="5.10" departSpeed="0.00" departDelay="0.65" arrival="77.00" arrivalLane="580_4way_302to4way_303_0" arrivalPos="85.60" arrivalSpeed="13.87" duration="67.00" routeLength="575.13" waitingTime="15.00" waitingCount="1" stopTime="0.00" timeLoss="25.95" rerouteNo="0" devices="tripinfo_187" vType="DEFAULT_VEHTYPE" speedFactor="1.03" vaporized=""/>
    <tripinfo id="326" depart="17.00" departLane="627_4way_326to4way_327_0" departPos="5.10" departSpeed="0.00" departDelay="0.70" arrival="77.00" arrivalLane="629_4way_327to4way_328_0" arrivalPos="85.60" arrivalSpeed="13.11" duration="60.00" routeLength="180.50" waitingTime="38.00" waitingCount="1" stopTime="0.00" timeLoss="46.93" rerouteNo="0" devices="tripinfo_326" vType="DEFAULT_VEHTYPE" speedFactor="1.00" vaporized=""/>
    <tripinfo id="1340" depart="67.00" departLane="934_4way_504to4way_479_0" departPos="5.10" departSpeed="0.00" departDelay="0.00" arrival="77.00" arrivalLane="934_4way_504to4way_479_0" arrivalPos="85.60" arrivalSpeed="12.97" duration="10.00" routeLength="80.50" waitingTime="0.00" waitingCount="0" stopTime="0.00" timeLoss="3.40" rerouteNo="0" devices="tripinfo_1340" vType="DEFAULT_VEHTYPE" speedFactor="0.95" vaporized=""/>
    <tripinfo id="20" depart="1.00" departLane="893_4way_483to4way_458_0" departPos="5.10" departSpeed="0.00" departDelay="0.00" arrival="78.00" arrivalLane="839_4way_432to4way_431_0" arrivalPos="85.60" arrivalSpeed="11.98" duration="77.00" routeLength="375.13" waitingTime="34.00" waitingCount="1" stopTime="0.00" timeLoss="45.11" rerouteNo="0" devices="tripinfo_20" vType="DEFAULT_VEHTYPE" speedFactor="0.89" vaporized=""/>
    <tripinfo id="226" depart="12.00" departLane="138_3way_604to4way_579_0" departPos="5.10" departSpeed="0.00" departDelay="0.70" arrival="78.00" arrivalLane="831_4way_429to4way_428_0" arrivalPos="85.60" arrivalSpeed="12.29" duration="66.00" routeLength="775.13" waitingTime="0.00" waitingCount="0" stopTime="0.00" timeLoss="6.76" rerouteNo="0" devices="tripinfo_226" vType="DEFAULT_VEHTYPE" speedFactor="0.97" vaporized=""/>
    <tripinfo id="438" depart="22.00" departLane="740_4way_381to4way_406_0" departPos="5.10" departSpeed="0.00" departDelay="0.10" arrival="78.00" arrivalLane="790_4way_407to4way_408_0" arrivalPos="85.60" arrivalSpeed="11.74" duration="56.00" routeLength="275.13" waitingTime="24.00" waitingCount="1" stopTime="0.00" timeLoss="33.20" rerouteNo="0" devices="tripinfo_438" vType="DEFAULT_VEHTYPE" speedFactor="0.92" vaporized=""/>
    <tripinfo id="679" depart="34.00" departLane="709_4way_365to4way_390_0" departPos="5.10" departSpeed="0.00" departDelay="0.05" arrival="78.00" arrivalLane="861_4way_441to4way_442_0" arrivalPos="85.60" arrivalSpeed="15.60" duration="44.00" routeLength="475.13" waitingTime="0.00" waitingCount="0" stopTime="0.00" timeLoss="13.86" rerouteNo="0" devices="tripinfo_679" vType="DEFAULT_VEHTYPE" speedFactor="1.16" vaporized=""/>
    <tripinfo id="874" depart="44.00" departLane="305_4way_179to4way_154_0" departPos="5.10" departSpeed="0.00" departDelay="0.30" arrival="78.00" arrivalLane="255_4way_128to4way_127_0" arrivalPos="85.60" arrivalSpeed="13.37" duration="34.00" routeLength="375.13" waitingTime="0.00" waitingCount="0" stopTime="0.00" timeLoss="5.21" rerouteNo="0" devices="tripinfo_874" vType="DEFAULT_VEHTYPE" speedFactor="1.00" vaporized=""/>
    <tripinfo id="878" depart="44.00" departLane="1066_4way_547to4way_546_0" departPos="5.10" departSpeed="0.00" departDelay="0.10" arrival="78.00" arrivalLane="1064_4way_546to4way_545_0" arrivalPos="85.60" arrivalSpeed="15.71" duration="34.00" routeLength="180.50" waitingTime="11.00" waitingCount="1" stopTime="0.00" timeLoss="22.28" rerouteNo="0" devices="tripinfo_878" vType="DEFAULT_VEHTYPE" speedFactor="1.15" vaporized=""/>
    <tripinfo id="1377" depart="69.00" departLane="153_3way_612to3way_613_0" departPos="5.10" departSpeed="0.00" departDelay="0.15" arrival="78.00" arrivalLane="153_3way_612to3way_613_0" arrivalPos="85.60" arrivalSpeed="14.25" duration="9.00" routeLength="80.50" waitingTime="0.00" waitingCount="0" stopTime="0.00" timeLoss="3.51" rerouteNo="0" devices="tripinfo_1377" vType="DEFAULT_VEHTYPE" speedFactor="1.09" vaporized=""/>
    <tripinfo id="784" depart="40.00" departLane="844_4way_458to4way_433_0" departPos="5.10" departSpeed="0.00" departDelay="0.80" arrival="79.00" arrivalLane="788_4way_407to4way_406_0" arrivalPos="85.60" arrivalSpeed="14.08" duration="39.00" routeLength="375.13" waitingTime="0.00" waitingCount="0" stopTime="0.00" timeLoss="11.75" rerouteNo="0" devices="tripinfo_784" vType="DEFAULT_VEHTYPE" speedFactor="1.04" vaporized=""/>
    <tripinfo id="82" depart="5.00" departLane="244_4way_95to4way_120_0" departPos="5.10" departSpeed="0.00" departDelay="0.90" arrival="84.00" arrivalLane="430_4way_222to4way_223_0" arrivalPos="85.60" arrivalSpeed="12.81" duration="79.00" routeLength="775.13" waitingTime="10.00" waitingCount="1" stopTime="0.00" timeLoss="22.08" rerouteNo="0" devices="tripinfo_82" vType="DEFAULT_VEHTYPE" speedFactor="0.99" vaporized=""/>
    <tripinfo id="273" depart="14.00" departLane="1110_4way_593to4way_568_0" departPos="5.10" departSpeed="0.00" departDelay="0.35" arrival="84.00" arrivalLane="956_4way_491to4way_490_0" arrivalPos="85.60" arrivalSpeed="14.35" duration="70.00" routeLength="675.13" waitingTime="10.00" waitingCount="1" stopTime="0.00" timeLoss="22.15" rerouteNo="0" devices="tripinfo_273" vType="DEFAULT_VEHTYPE" speedFactor="1.04" vaporized=""/>
    <tripinfo id="1113" depart="56.00" departLane="723_4way_371to4way_396_0" departPos="5.10" departSpeed="0.00" departDelay="0.35" arrival="84.00" arrivalLane="822_4way_421to4way_422_0" arrivalPos="85.60" arrivalSpeed="12.52" duration="28.00" routeLength="275.13" waitingTime="0.00" waitingCount="0" stopTime="0.00" timeLoss="6.45" rerouteNo="0" devices="tripinfo_1113" vType="DEFAULT_VEHTYPE" speedFactor="0.98" vaporized=""/>
    <tripinfo id="262" depart="14.00" departLane="619_4way_57to4way_32_0" departPos="5.10" departSpeed="0.00" departDelay="0.90" arrival="85.00" arrivalLane="109_3way_6to3way_5_0" arrivalPos="85.60" arrivalSpeed="11.89" duration="71.00" routeLength="375.13" waitingTime="32.00" waitingCount="1" stopTime="0.00" timeLoss="41.16" rerouteNo="0" devices="tripinfo_262" vType="DEFAULT_VEHTYPE" speedFactor="0.93" vaporized=""/>
    <tripinfo id="466" depart="24.00" departLane="146_3way_608to4way_583_0" departPos="5.10" departSpeed="0.00" departDelay="0.70" arrival="85.00" arrivalLane="1128_4way_581to4way_580_0" arrivalPos="85.60" arrivalSpeed="11.79" duration="61.00" routeLength="375.13" waitingTime="19.00" waitingCount="1" stopTime="0.00" timeLoss="31.10" rerouteNo="0" devices="tripinfo_466" vType="DEFAULT_VEHTYPE" speedFactor="0.92" vaporized=""/>
    <tripinfo id="956" depart="49.00" departLane="587_4way_305to4way_330_0" departPos="5.10" departSpeed="0.00" departDelay="1.20" arrival="85.00" arrivalLane="737_4way_380to4way_381_0" arrivalPos="85.60" arrivalSpeed="12.56" duration="36.00" routeLength="375.13" waitingTime="0.00" waitingCount="0" stopTime="0.00" timeLoss="6.18" rerouteNo="0" devices="tripinfo_956" vType="DEFAULT_VEHTYPE" speedFactor="0.94" vaporized=""/>
    <tripinfo id="16" depart="1.00" departLane="408_4way_212to4way_211_0" departPos="5.10" departSpeed="0.00" departDelay="0.20" arrival="86.00" arrivalLane="404_4way_210to4way_209_0" arrivalPos="85.60" arrivalSpeed="11.21" duration="85.00" routeLength="280.50" waitingTime="54.00" waitingCount="1" stopTime="0.00" timeLoss="61.95" rerouteNo="0" devices="tripinfo_16" vType="DEFAULT_VEHTYPE" speedFactor="0.90" vaporized=""/>
    <tripinfo id="669" depart="34.00" departLane="392_4way_204to4way_203_0" departPos="5.10" departSpeed="0.00" departDelay="0.55" arrival="86.00" arrivalLane="438_4way_228to4way_253_0" arrivalPos="85.60" arrivalSpeed="13.83" duration="52.00" routeLength="275.13" waitingTime="23.00" waitingCount="1" stopTime="0.00" timeLoss="32.55" rerouteNo="0" devices="tripinfo_669" vType="DEFAULT_VEHTYPE" speedFactor="1.08" vaporized=""/>
    <tripinfo id="554" depart="28.00" departLane="987_4way_508to4way_509_0" departPos="5.10" departSpeed="0.00" departDelay="0.30" arrival="87.00" arrivalLane="895_4way_484to4way_459_0" arrivalPos="85.60" arrivalSpeed="12.33" duration="59.00" routeLength="275.13" waitingTime="27.00" waitingCount="1" stopTime="0.00" timeLoss="37.92" rerouteNo="0" devices="tripinfo_554" vType="DEFAULT_VEHTYPE" speedFactor="0.97" vaporized=""/>
    <tripinfo id="490" depart="25.00" departLane="915_4way_468to4way_493_0" departPos="5.10" departSpeed="0.00" departDelay="0.50" arrival="88.00" arrivalLane="1064_4way_545to4way_546_0" arrivalPos="85.60" arrivalSpeed="11.50" duration="63.00" routeLength="575.13" waitingTime="4.00" waitingCount="1" stopTime="0.00" timeLoss="16.06" rerouteNo="0" devices="tripinfo_490" vType="DEFAULT_VEHTYPE" speedFactor="0.91" vaporized=""/>
    <tripinfo id="654" depart="33.00" departLane="913_4way_467to4way_492_0" departPos="5.10" departSpeed="0.00" departDelay="0.30" arrival="88.00" arrivalLane="1062_4way_544to4way_545_0" arrivalPos="85.60" arrivalSpeed="13.75" duration="55.00" routeLength="575.13" waitingTime="0.00" waitingCount="0" stopTime="0.00" timeLoss="14.85" rerouteNo="0" devices="tripinfo_654" vType="DEFAULT_VEHTYPE" speedFactor="1.07" vaporized=""/>
    <tripinfo id="7" depart="1.00" departLane="159_3way_615to3way_616_0" departPos="5.10" departSpeed="0.00" departDelay="0.65" arrival="90.00" arrivalLane="123_3way_599to3way_574_0" arrivalPos="85.60" arrivalSpeed="13.06" duration="89.00" routeLength="1077.30" waitingTime="0.00" waitingCount="0" stopTime="0.00" timeLoss="7.06" rerouteNo="0" devices="tripinfo_7" vType="DEFAULT_VEHTYPE" speedFactor="0.95" vaporized=""/>
    <tripinfo id="261" depart="14.00" departLane="231_4way_141to4way_116_0" departPos="5.10" departSpeed="0.00" departDelay="0.95" arrival="92.00" arrivalLane="37_3way_18to3way_19_0" arrivalPos="85.60" arrivalSpeed="13.76" duration="78.00" routeLength="780.29" waitingTime="12.00" waitingCount="1" stopTime="0.00" timeLoss="21.10" rerouteNo="0" devices="tripinfo_261" vType="DEFAULT_VEHTYPE" speedFactor="1.01" vaporized=""/>
    <tripinfo id="960" depart="50.00" departLane="109_3way_6to3way_5_0" departPos="5.10" departSpeed="0.00" departDelay="2.00" arrival="92.00" arrivalLane="44_3way_2to4way_27_0" arrivalPos="85.60" arrivalSpeed="13.11" duration="42.00" routeLength="475.13" waitingTime="0.00" waitingCount="0" stopTime="0.00" timeLoss="6.74" rerouteNo="0" devices="tripinfo_960" vType="DEFAULT_VEHTYPE" speedFactor="1.01" vaporized=""/>
    <tripinfo id="361" depart="19.00" departLane="246_4way_146to4way_121_0" departPos="5.10" departSpeed="0.00" departDelay="0.95" arrival="95.00" arrivalLane="37_3way_19to3way_18_0" arrivalPos="85.60" arrivalSpeed="11.91" duration="76.00" routeLength="775.13" waitingTime="0.00" waitingCount="0" stopTime="0.00" timeLoss="10.34" rerouteNo="0" devices="tripinfo_361" vType="DEFAULT_VEHTYPE" speedFactor="0.87" vaporized=""/>
    <tripinfo id="835" depart="45.00" departLane="961_4way_492to4way_517_0" departPos="5.10" departSpeed="0.00" departDelay="3.25" arrival="96.00" arrivalLane="1143_4way_593to4way_594_0" arrivalPos="85.60" arrivalSpeed="13.29" duration="51.00" routeLength="575.13" waitingTime="0.00" waitingCount="0" stopTime="0.00" timeLoss="6.62" rerouteNo="0" devices="tripinfo_835" vType="DEFAULT_VEHTYPE" speedFactor="0.97" vaporized=""/>
    <tripinfo id="1750" depart="88.00" departLane="34_3way_174to4way_173_0" departPos="5.10" departSpeed="0.00" departDelay="0.50" arrival="97.00" arrivalLane="34_3way_174to4way_173_0" arrivalPos="85.60" arrivalSpeed="15.44" duration="9.00" routeLength="80.50" waitingTime="0.00" waitingCount="0" stopTime="0.00" timeLoss="3.66" rerouteNo="0" devices="tripinfo_1750" vType="DEFAULT_VEHTYPE" speedFactor="1.14" vaporized=""/>
    <tripinfo id="1951" depart="98.00" departLane="1033_4way_530to4way_555_0" departPos="5.10" departSpeed="0.00" departDelay="0.45" arrival="108.00" arrivalLane="1033_4way_530to4way_555_0" arrivalPos="85.60" arrivalSpeed="13.45" duration="10.00" routeLength="80.50" waitingTime="0.00" waitingCount="0" stopTime="0.00" timeLoss="3.85" rerouteNo="0" devices="tripinfo_1951" vType="DEFAULT_VEHTYPE" speedFactor="0.99" vaporized=""/>
    <tripinfo id="103" depart="7.00" departLane="315_4way_159to4way_184_0" departPos="5.10" departSpeed="0.00" departDelay="1.85" arrival="109.00" arrivalLane="414_4way_214to4way_215_0" arrivalPos="85.60" arrivalSpeed="15.87" duration="102.00" routeLength="775.13" waitingTime="32.00" waitingCount="1" stopTime="0.00" timeLoss="52.60" rerouteNo="0" devices="tripinfo_103" vType="DEFAULT_VEHTYPE" speedFactor="1.15" vaporized=""/>
    <tripinfo id="1988" depart="100.00" departLane="100_4way_451to3way_450_0" departPos="5.10" departSpeed="0.00" departDelay="0.60" arrival="109.00" arrivalLane="100_4way_451to3way_450_0" arrivalPos="85.60" arrivalSpeed="14.67" duration="9.00" routeLength="80.50" waitingTime="0.00" waitingCount="0" stopTime="0.00" timeLoss="3.28" rerouteNo="0" devices="tripinfo_1988" vType="DEFAULT_VEHTYPE" speedFactor="1.07" vaporized=""/>
    <tripinfo id="699" depart="35.00" departLane="813_4way_417to4way_442_0" departPos="5.10" departSpeed="0.00" departDelay="0.05" arrival="110.00" arrivalLane="1144_4way_594to4way_595_0" arrivalPos="85.60" arrivalSpeed="13.38" duration="75.00" routeLength="975.13" waitingTime="0.00" waitingCount="0" stopTime="0.00" timeLoss="7.18" rerouteNo="0" devices="tripinfo_699" vType="DEFAULT_VEHTYPE" speedFactor="1.05" vaporized=""/>
    <tripinfo id="1078" depart="54.00" departLane="582_4way_304to4way_303_0" departPos="5.10" departSpeed="0.00" departDelay="0.10" arrival="111.00" arrivalLane="783_4way_403to4way_428_0" arrivalPos="85.60" arrivalSpeed="12.53" duration="57.00" routeLength="575.13" waitingTime="0.00" waitingCount="0" stopTime="0.00" timeLoss="10.27" rerouteNo="0" devices="tripinfo_1078" vType="DEFAULT_VEHTYPE" speedFactor="0.91" vaporized=""/>
    <tripinfo id="507" depart="26.00" departLane="1127_4way_83to4way_58_0" departPos="5.10" departSpeed="0.00" departDelay="0.65" arrival="116.00" arrivalLane="19_3way_13to3way_14_0" arrivalPos="85.60" arrivalSpeed="13.11" duration="90.00" routeLength="880.29" waitingTime="15.00" waitingCount="1" stopTime="0.00" timeLoss="23.60" rerouteNo="0" devices="tripinfo_507" vType="DEFAULT_VEHTYPE" speedFactor="0.97" vaporized=""/>
    <tripinfo id="339" depart="17.00" departLane="1086_4way_557to4way_582_0" departPos="5.10" departSpeed="0.00" departDelay="0.05" arrival="117.00" arrivalLane="131_3way_602to3way_601_0" arrivalPos="85.60" arrivalSpeed="13.71" duration="100.00" routeLength="780.29" waitingTime="32.00" waitingCount="1" stopTime="0.00" timeLoss="44.68" rerouteNo="0" devices="tripinfo_339" vType="DEFAULT_VEHTYPE" speedFactor="1.03" vaporized=""/>
    <tripinfo id="218" depart="11.00" departLane="885_4way_454to4way_479_0" departPos="5.10" departSpeed="0.00" departDelay="0.10" arrival="119.00" arrivalLane="1133_4way_585to4way_586_0" arrivalPos="85.60" arrivalSpeed="13.01" duration="108.00" routeLength="1175.13" waitingTime="3.00" waitingCount="1" stopTime="0.00" timeLoss="19.38" rerouteNo="0" devices="tripinfo_218" vType="DEFAULT_VEHTYPE" speedFactor="0.96" vaporized=""/>