<?xml version="1.0" encoding="UTF-8"?>

<!-- generated on 2023-07-29 14:42:23 by Eclipse SUMO sumo Version 1.12.0
<configuration xmlns:xsi="http://www.w3.org/2001/XMLSchema-instance" xsi:noNamespaceSchemaLocation="http://sumo.dlr.de/xsd/sumoConfiguration.xsd">

    <input>
        <net-file value="../../data_generation/sq.net.xml"/>
        <route-files value="../../data_generation/sq.rou.xml"/>
    </input>

    <output>
        <tripinfo-output value="tripinfo.xml"/>
        <statistic-output value="statistic.xml"/>
    </output>

    <time>
        <begin value="0"/>
        <end value="3600"/>
    </time>

    <processing>
        <time-to-teleport value="-1"/>
    </processing>

    <traci_server>
        <remote-port value="45781"/>
    </traci_server>

    <random_number>
        <seed value="1395"/>
    </random_number>

    <gui_only>
        <gui-settings-file value="../../data_generation/view_HY_0402.xml"/>
    </gui_only>

</configuration>
-->

<tripinfos xmlns:xsi="http://www.w3.org/2001/XMLSchema-instance" xsi:noNamespaceSchemaLocation="http://sumo.dlr.de/xsd/tripinfo_file.xsd">
    <tripinfo id="7" depart="1.00" departLane="34_3way_7to3way_6_0" departPos="5.10" departSpeed="0.00" departDelay="0.03" arrival="11.00" arrivalLane="34_3way_7to3way_6_0" arrivalPos="85.60" arrivalSpeed="12.55" duration="10.00" routeLength="80.50" waitingTime="0.00" waitingCount="0" stopTime="0.00" timeLoss="3.22" rerouteNo="0" devices="tripinfo_7" vType="DEFAULT_VEHTYPE" speedFactor="0.95" vaporized=""/>
    <tripinfo id="9" depart="2.00" departLane="104_4way_42to4way_41_0" departPos="5.10" departSpeed="0.00" departDelay="0.75" arrival="12.00" arrivalLane="104_4way_42to4way_41_0" arrivalPos="85.60" arrivalSpeed="12.23" duration="10.00" routeLength="80.50" waitingTime="0.00" waitingCount="0" stopTime="0.00" timeLoss="2.68" rerouteNo="0" devices="tripinfo_9" vType="DEFAULT_VEHTYPE" speedFactor="0.91" vaporized=""/>
    <tripinfo id="38" depart="6.00" departLane="21_4way_37to3way_36_0" departPos="5.10" departSpeed="0.00" departDelay="0.73" arrival="16.00" arrivalLane="21_4way_37to3way_36_0" arrivalPos="85.60" arrivalSpeed="13.47" duration="10.00" routeLength="80.50" waitingTime="0.00" waitingCount="0" stopTime="0.00" timeLoss="3.31" rerouteNo="0" devices="tripinfo_38" vType="DEFAULT_VEHTYPE" speedFactor="1.00" vaporized=""/>
    <tripinfo id="71" depart="10.00" departLane="6_4way_16to3way_17_0" departPos="5.10" departSpeed="0.00" departDelay="0.14" arrival="19.00" arrivalLane="6_4way_16to3way_17_0" arrivalPos="85.60" arrivalSpeed="14.82" duration="9.00" routeLength="80.50" waitingTime="0.00" waitingCount="0" stopTime="0.00" timeLoss="3.58" rerouteNo="0" devices="tripinfo_71" vType="DEFAULT_VEHTYPE" speedFactor="1.13" vaporized=""/>
    <tripinfo id="51" depart="10.00" departLane="88_4way_30to4way_39_0" departPos="5.10" departSpeed="0.00" departDelay="2.92" arrival="21.00" arrivalLane="88_4way_30to4way_39_0" arrivalPos="85.60" arrivalSpeed="10.06" duration="11.00" routeLength="80.50" waitingTime="0.00" waitingCount="0" stopTime="0.00" timeLoss="2.87" rerouteNo="0" devices="tripinfo_51" vType="DEFAULT_VEHTYPE" speedFactor="0.74" vaporized=""/>
    <tripinfo id="16" depart="3.00" departLane="62_4way_21to4way_12_0" departPos="5.10" departSpeed="0.00" departDelay="0.78" arrival="24.00" arrivalLane="59_4way_12to4way_11_0" arrivalPos="85.60" arrivalSpeed="11.44" duration="21.00" routeLength="175.13" waitingTime="0.00" waitingCount="0" stopTime="0.00" timeLoss="5.64" rerouteNo="0" devices="tripinfo_16" vType="DEFAULT_VEHTYPE" speedFactor="0.90" vaporized=""/>
    <tripinfo id="35" depart="5.00" departLane="23_3way_4to4way_13_0" departPos="5.10" departSpeed="0.00" departDelay="0.14" arrival="25.00" arrivalLane="63_4way_13to4way_14_0" arrivalPos="85.60" arrivalSpeed="12.60" duration="20.00" routeLength="175.13" waitingTime="0.00" waitingCount="0" stopTime="0.00" timeLoss="4.86" rerouteNo="0" devices="tripinfo_35" vType="DEFAULT_VEHTYPE" speedFactor="0.94" vaporized=""/>
    <tripinfo id="65" depart="10.00" departLane="88_4way_39to4way_30_0" departPos="5.10" departSpeed="0.00" departDelay="0.98" arrival="25.00" arrivalLane="75_4way_30to4way_21_0" arrivalPos="85.60" arrivalSpeed="16.07" duration="15.00" routeLength="180.50" waitingTime="0.00" waitingCount="0" stopTime="0.00" timeLoss="3.93" rerouteNo="0" devices="tripinfo_65" vType="DEFAULT_VEHTYPE" speedFactor="1.20" vaporized=""/>
    <tripinfo id="116" depart="17.00" departLane="57_4way_11to4way_10_0" departPos="5.10" departSpeed="0.00" departDelay="0.90" arrival="27.00" arrivalLane="57_4way_11to4way_10_0" arrivalPos="85.60" arrivalSpeed="12.58" duration="10.00" routeLength="80.50" waitingTime="0.00" waitingCount="0" stopTime="0.00" timeLoss="3.34" rerouteNo="0" devices="tripinfo_116" vType="DEFAULT_VEHTYPE" speedFactor="0.99" vaporized=""/>
    <tripinfo id="124" depart="18.00" departLane="79_4way_23to4way_32_0" departPos="5.10" departSpeed="0.00" departDelay="0.79" arrival="27.00" arrivalLane="79_4way_23to4way_32_0" arrivalPos="85.60" arrivalSpeed="14.91" duration="9.00" routeLength="80.50" waitingTime="0.00" waitingCount="0" stopTime="0.00" timeLoss="3.19" rerouteNo="0" devices="tripinfo_124" vType="DEFAULT_VEHTYPE" speedFactor="1.11" vaporized=""/>
    <tripinfo id="81" depart="12.00" departLane="2_3way_9to3way_1_0" departPos="5.10" departSpeed="0.00" departDelay="0.76" arrival="29.00" arrivalLane="2_3way_9to3way_1_0" arrivalPos="188.80" arrivalSpeed="14.03" duration="17.00" routeLength="183.70" waitingTime="0.00" waitingCount="0" stopTime="0.00" timeLoss="3.81" rerouteNo="0" devices="tripinfo_81" vType="DEFAULT_VEHTYPE" speedFactor="1.05" vaporized=""/>
    <tripinfo id="160" depart="23.00" departLane="103_4way_49to4way_40_0" departPos="5.10" departSpeed="0.00" departDelay="0.79" arrival="33.00" arrivalLane="103_4way_49to4way_40_0" arrivalPos="85.60" arrivalSpeed="11.11" duration="10.00" routeLength="80.50" waitingTime="0.00" waitingCount="0" stopTime="0.00" timeLoss="3.03" rerouteNo="0" devices="tripinfo_160" vType="DEFAULT_VEHTYPE" speedFactor="0.88" vaporized=""/>
    <tripinfo id="28" depart="4.00" departLane="12_3way_26to3way_35_0" departPos="5.10" departSpeed="0.00" departDelay="0.11" arrival="35.00" arrivalLane="30_3way_53to3way_62_0" arrivalPos="85.60" arrivalSpeed="14.06" duration="31.00" routeLength="380.50" waitingTime="0.00" waitingCount="0" stopTime="0.00" timeLoss="4.16" rerouteNo="0" devices="tripinfo_28" vType="DEFAULT_VEHTYPE" speedFactor="1.03" vaporized=""/>
    <tripinfo id="96" depart="14.00" departLane="45_3way_74to3way_75_0" departPos="5.10" departSpeed="0.00" departDelay="0.67" arrival="35.00" arrivalLane="47_3way_75to3way_76_0" arrivalPos="85.60" arrivalSpeed="7.28" duration="21.00" routeLength="180.50" waitingTime="0.00" waitingCount="0" stopTime="0.00" timeLoss="7.14" rerouteNo="0" devices="tripinfo_96" vType="DEFAULT_VEHTYPE" speedFactor="0.95" vaporized=""/>
    <tripinfo id="147" depart="25.00" departLane="108_4way_43to4way_52_0" departPos="5.10" departSpeed="0.00" departDelay="4.60" arrival="35.00" arrivalLane="108_4way_43to4way_52_0" arrivalPos="85.60" arrivalSpeed="12.51" duration="10.00" routeLength="80.50" waitingTime="0.00" waitingCount="0" stopTime="0.00" timeLoss="3.64" rerouteNo="0" devices="tripinfo_147" vType="DEFAULT_VEHTYPE" speedFactor="0.97" vaporized=""/>
    <tripinfo id="85" depart="12.00" departLane="49_3way_76to3way_77_0" departPos="5.10" departSpeed="0.00" departDelay="0.20" arrival="37.00" arrivalLane="131_4way_68to4way_59_0" arrivalPos="85.60" arrivalSpeed="14.84" duration="25.00" routeLength="275.13" waitingTime="0.00" waitingCount="0" stopTime="0.00" timeLoss="5.98" rerouteNo="0" devices="tripinfo_85" vType="DEFAULT_VEHTYPE" speedFactor="1.12" vaporized=""/>
    <tripinfo id="113" depart="16.00" departLane="49_3way_77to3way_76_0" departPos="5.10" departSpeed="0.00" departDelay="0.32" arrival="39.00" arrivalLane="45_3way_75to3way_74_0" arrivalPos="85.60" arrivalSpeed="14.26" duration="23.00" routeLength="280.50" waitingTime="0.00" waitingCount="0" stopTime="0.00" timeLoss="4.01" rerouteNo="0" devices="tripinfo_113" vType="DEFAULT_VEHTYPE" speedFactor="1.10" vaporized=""/>
    <tripinfo id="103" depart="15.00" departLane="51_3way_77to3way_78_0" departPos="5.10" departSpeed="0.00" departDelay="0.70" arrival="40.00" arrivalLane="55_3way_79to4way_70_0" arrivalPos="85.60" arrivalSpeed="15.55" duration="25.00" routeLength="275.13" waitingTime="0.00" waitingCount="0" stopTime="0.00" timeLoss="6.64" rerouteNo="0" devices="tripinfo_103" vType="DEFAULT_VEHTYPE" speedFactor="1.15" vaporized=""/>
    <tripinfo id="133" depart="21.00" departLane="120_4way_51to4way_60_0" departPos="5.10" departSpeed="0.00" departDelay="2.54" arrival="41.00" arrivalLane="132_4way_60to4way_61_0" arrivalPos="85.60" arrivalSpeed="12.79" duration="20.00" routeLength="175.13" waitingTime="0.00" waitingCount="0" stopTime="0.00" timeLoss="5.87" rerouteNo="0" devices="tripinfo_133" vType="DEFAULT_VEHTYPE" speedFactor="1.01" vaporized=""/>
    <tripinfo id="171" depart="24.00" departLane="17_3way_3to4way_12_0" departPos="5.10" departSpeed="0.00" departDelay="0.26" arrival="42.00" arrivalLane="61_4way_12to4way_13_0" arrivalPos="85.60" arrivalSpeed="13.95" duration="18.00" routeLength="175.13" waitingTime="0.00" waitingCount="0" stopTime="0.00" timeLoss="5.29" rerouteNo="0" devices="tripinfo_171" vType="DEFAULT_VEHTYPE" speedFactor="1.04" vaporized=""/>
    <tripinfo id="205" depart="34.00" departLane="134_4way_70to4way_61_0" departPos="5.10" departSpeed="0.00" departDelay="5.55" arrival="44.00" arrivalLane="134_4way_70to4way_61_0" arrivalPos="85.60" arrivalSpeed="12.22" duration="10.00" routeLength="80.50" waitingTime="0.00" waitingCount="0" stopTime="0.00" timeLoss="3.13" rerouteNo="0" devices="tripinfo_205" vType="DEFAULT_VEHTYPE" speedFactor="0.90" vaporized=""/>
    <tripinfo id="252" depart="35.00" departLane="126_4way_58to4way_57_0" departPos="5.10" departSpeed="0.00" departDelay="0.02" arrival="45.00" arrivalLane="126_4way_58to4way_57_0" arrivalPos="85.60" arrivalSpeed="13.50" duration="10.00" routeLength="80.50" waitingTime="0.00" waitingCount="0" stopTime="0.00" timeLoss="3.25" rerouteNo="0" devices="tripinfo_252" vType="DEFAULT_VEHTYPE" speedFactor="0.98" vaporized=""/>
    <tripinfo id="257" depart="36.00" departLane="3_4way_10to3way_1_0" departPos="5.10" departSpeed="0.00" departDelay="0.33" arrival="46.00" arrivalLane="3_4way_10to3way_1_0" arrivalPos="85.60" arrivalSpeed="11.42" duration="10.00" routeLength="80.50" waitingTime="0.00" waitingCount="0" stopTime="0.00" timeLoss="3.03" rerouteNo="0" devices="tripinfo_257" vType="DEFAULT_VEHTYPE" speedFactor="0.83" vaporized=""/>
    <tripinfo id="266" depart="37.00" departLane="101_4way_39to4way_48_0" departPos="5.10" departSpeed="0.00" departDelay="0.08" arrival="46.00" arrivalLane="101_4way_39to4way_48_0" arrivalPos="85.60" arrivalSpeed="12.64" duration="9.00" routeLength="80.50" waitingTime="0.00" waitingCount="0" stopTime="0.00" timeLoss="2.93" rerouteNo="0" devices="tripinfo_266" vType="DEFAULT_VEHTYPE" speedFactor="0.97" vaporized=""/>
    <tripinfo id="110" depart="16.00" departLane="108_4way_43to4way_52_0" departPos="5.10" departSpeed="0.00" departDelay="0.73" arrival="47.00" arrivalLane="55_4way_70to3way_79_0" arrivalPos="85.60" arrivalSpeed="13.78" duration="31.00" routeLength="380.50" waitingTime="0.00" waitingCount="0" stopTime="0.00" timeLoss="4.20" rerouteNo="0" devices="tripinfo_110" vType="DEFAULT_VEHTYPE" speedFactor="1.05" vaporized=""/>
    <tripinfo id="126" depart="22.00" departLane="88_4way_39to4way_30_0" departPos="5.10" departSpeed="0.00" departDelay="4.51" arrival="47.00" arrivalLane="62_4way_21to4way_12_0" arrivalPos="85.60" arrivalSpeed="13.53" duration="25.00" routeLength="280.50" waitingTime="0.00" waitingCount="0" stopTime="0.00" timeLoss="4.00" rerouteNo="0" devices="tripinfo_126" vType="DEFAULT_VEHTYPE" speedFactor="1.01" vaporized=""/>
    <tripinfo id="130" depart="19.00" departLane="105_4way_50to4way_41_0" departPos="5.10" departSpeed="0.00" departDelay="0.96" arrival="47.00" arrivalLane="89_4way_32to4way_31_0" arrivalPos="85.60" arrivalSpeed="12.90" duration="28.00" routeLength="275.13" waitingTime="0.00" waitingCount="0" stopTime="0.00" timeLoss="5.95" rerouteNo="0" devices="tripinfo_130" vType="DEFAULT_VEHTYPE" speedFactor="0.98" vaporized=""/>
    <tripinfo id="46" depart="7.00" departLane="11_3way_2to4way_11_0" departPos="5.10" departSpeed="0.00" departDelay="0.61" arrival="48.00" arrivalLane="98_4way_38to4way_39_0" arrivalPos="85.60" arrivalSpeed="13.28" duration="41.00" routeLength="475.13" waitingTime="0.00" waitingCount="0" stopTime="0.00" timeLoss="6.77" rerouteNo="0" devices="tripinfo_46" vType="DEFAULT_VEHTYPE" speedFactor="1.04" vaporized=""/>
    <tripinfo id="100" depart="14.00" departLane="28_3way_6to3way_5_0" departPos="5.10" departSpeed="0.00" departDelay="0.12" arrival="49.00" arrivalLane="10_3way_3to3way_2_0" arrivalPos="85.60" arrivalSpeed="7.64" duration="35.00" routeLength="380.50" waitingTime="0.00" waitingCount="0" stopTime="0.00" timeLoss="11.81" rerouteNo="0" devices="tripinfo_100" vType="DEFAULT_VEHTYPE" speedFactor="1.20" vaporized=""/>
    <tripinfo id="202" depart="31.00" departLane="45_3way_74to3way_75_0" departPos="5.10" departSpeed="0.00" departDelay="2.96" arrival="49.00" arrivalLane="47_3way_75to3way_76_0" arrivalPos="85.60" arrivalSpeed="11.76" duration="18.00" routeLength="180.50" waitingTime="0.00" waitingCount="0" stopTime="0.00" timeLoss="3.48" rerouteNo="0" devices="tripinfo_202" vType="DEFAULT_VEHTYPE" speedFactor="0.90" vaporized=""/>
    <tripinfo id="288" depart="41.00" departLane="22_3way_5to3way_4_0" departPos="5.10" departSpeed="0.00" departDelay="1.03" arrival="51.00" arrivalLane="22_3way_5to3way_4_0" arrivalPos="85.60" arrivalSpeed="10.65" duration="10.00" routeLength="80.50" waitingTime="0.00" waitingCount="0" stopTime="0.00" timeLoss="2.76" rerouteNo="0" devices="tripinfo_288" vType="DEFAULT_VEHTYPE" speedFactor="0.82" vaporized=""/>
    <tripinfo id="313" depart="44.00" departLane="12_3way_26to3way_35_0" departPos="5.10" departSpeed="0.00" departDelay="0.56" arrival="53.00" arrivalLane="12_3way_26to3way_35_0" arrivalPos="85.60" arrivalSpeed="12.26" duration="9.00" routeLength="80.50" waitingTime="0.00" waitingCount="0" stopTime="0.00" timeLoss="2.42" rerouteNo="0" devices="tripinfo_313" vType="DEFAULT_VEHTYPE" speedFactor="0.90" vaporized=""/>
    <tripinfo id="114" depart="16.00" departLane="11_3way_2to4way_11_0" departPos="5.10" departSpeed="0.00" departDelay="0.18" arrival="54.00" arrivalLane="99_4way_38to4way_47_0" arrivalPos="85.60" arrivalSpeed="14.32" duration="38.00" routeLength="480.50" waitingTime="0.00" waitingCount="0" stopTime="0.00" timeLoss="4.60" rerouteNo="0" devices="tripinfo_114" vType="DEFAULT_VEHTYPE" speedFactor="1.06" vaporized=""/>
    <tripinfo id="148" depart="21.00" departLane="105_4way_41to4way_50_0" departPos="5.10" departSpeed="0.00" departDelay="0.46" arrival="54.00" arrivalLane="139_4way_68to4way_69_0" arrivalPos="85.60" arrivalSpeed="14.38" duration="33.00" routeLength="375.13" waitingTime="0.00" waitingCount="0" stopTime="0.00" timeLoss="6.77" rerouteNo="0" devices="tripinfo_148" vType="DEFAULT_VEHTYPE" speedFactor="1.07" vaporized=""/>
    <tripinfo id="167" depart="24.00" departLane="16_3way_4to3way_3_0" departPos="5.10" departSpeed="0.00" departDelay="0.82" arrival="54.00" arrivalLane="11_3way_2to4way_11_0" arrivalPos="85.60" arrivalSpeed="11.27" duration="30.00" routeLength="275.13" waitingTime="0.00" waitingCount="0" stopTime="0.00" timeLoss="5.52" rerouteNo="0" devices="tripinfo_167" vType="DEFAULT_VEHTYPE" speedFactor="0.85" vaporized=""/>
    <tripinfo id="89" depart="13.00" departLane="48_3way_75to4way_66_0" departPos="5.10" departSpeed="0.00" departDelay="0.65" arrival="56.00" arrivalLane="88_4way_39to4way_30_0" arrivalPos="85.60" arrivalSpeed="11.98" duration="43.00" routeLength="480.50" waitingTime="0.00" waitingCount="0" stopTime="0.00" timeLoss="4.98" rerouteNo="0" devices="tripinfo_89" vType="DEFAULT_VEHTYPE" speedFactor="0.93" vaporized=""/>
    <tripinfo id="20" depart="3.00" departLane="22_3way_5to3way_4_0" departPos="5.10" departSpeed="0.00" departDelay="0.22" arrival="57.00" arrivalLane="103_4way_40to4way_49_0" arrivalPos="85.60" arrivalSpeed="11.87" duration="54.00" routeLength="575.13" waitingTime="0.00" waitingCount="0" stopTime="0.00" timeLoss="7.09" rerouteNo="0" devices="tripinfo_20" vType="DEFAULT_VEHTYPE" speedFactor="0.89" vaporized=""/>
    <tripinfo id="372" depart="52.00" departLane="3_3way_1to4way_10_0" departPos="5.10" departSpeed="0.00" departDelay="0.37" arrival="62.00" arrivalLane="3_3way_1to4way_10_0" arrivalPos="85.60" arrivalSpeed="12.95" duration="10.00" routeLength="80.50" waitingTime="0.00" waitingCount="0" stopTime="0.00" timeLoss="3.84" rerouteNo="0" devices="tripinfo_372" vType="DEFAULT_VEHTYPE" speedFactor="0.96" vaporized=""/>
    <tripinfo id="244" depart="34.00" departLane="99_4way_38to4way_47_0" departPos="5.10" departSpeed="0.00" departDelay="0.13" arrival="63.00" arrivalLane="46_4way_65to3way_74_0" arrivalPos="85.60" arrivalSpeed="15.94" duration="29.00" routeLength="380.50" waitingTime="0.00" waitingCount="0" stopTime="0.00" timeLoss="4.50" rerouteNo="0" devices="tripinfo_244" vType="DEFAULT_VEHTYPE" speedFactor="1.16" vaporized=""/>
    <tripinfo id="318" depart="47.00" departLane="77_4way_22to4way_31_0" departPos="5.10" departSpeed="0.00" departDelay="2.86" arrival="64.00" arrivalLane="90_4way_31to4way_40_0" arrivalPos="85.60" arrivalSpeed="13.28" duration="17.00" routeLength="180.50" waitingTime="0.00" waitingCount="0" stopTime="0.00" timeLoss="3.99" rerouteNo="0" devices="tripinfo_318" vType="DEFAULT_VEHTYPE" speedFactor="1.01" vaporized=""/>
    <tripinfo id="260" depart="37.00" departLane="8_3way_18to3way_9_0" departPos="5.10" departSpeed="0.00" departDelay="0.91" arrival="66.00" arrivalLane="1_3way_1to3way_2_0" arrivalPos="85.60" arrivalSpeed="14.83" duration="29.00" routeLength="383.70" waitingTime="0.00" waitingCount="0" stopTime="0.00" timeLoss="3.98" rerouteNo="0" devices="tripinfo_260" vType="DEFAULT_VEHTYPE" speedFactor="1.12" vaporized=""/>
    <tripinfo id="327" depart="57.00" departLane="84_4way_28to4way_37_0" departPos="5.10" departSpeed="0.00" departDelay="11.61" arrival="67.00" arrivalLane="84_4way_28to4way_37_0" arrivalPos="85.60" arrivalSpeed="12.43" duration="10.00" routeLength="80.50" waitingTime="0.00" waitingCount="0" stopTime="0.00" timeLoss="3.33" rerouteNo="0" devices="tripinfo_327" vType="DEFAULT_VEHTYPE" speedFactor="0.95" vaporized=""/>
    <tripinfo id="410" depart="57.00" departLane="63_4way_13to4way_14_0" departPos="5.10" departSpeed="0.00" departDelay="0.09" arrival="67.00" arrivalLane="63_4way_13to4way_14_0" arrivalPos="85.60" arrivalSpeed="16.28" duration="10.00" routeLength="80.50" waitingTime="0.00" waitingCount="0" stopTime="0.00" timeLoss="4.46" rerouteNo="0" devices="tripinfo_410" vType="DEFAULT_VEHTYPE" speedFactor="1.21" vaporized=""/>
    <tripinfo id="70" depart="10.00" departLane="129_4way_58to4way_67_0" departPos="5.10" departSpeed="0.00" departDelay="0.28" arrival="70.00" arrivalLane="138_4way_67to4way_68_0" arrivalPos="85.60" arrivalSpeed="4.77" duration="60.00" routeLength="175.13" waitingTime="33.00" waitingCount="1" stopTime="0.00" timeLoss="42.08" rerouteNo="0" devices="tripinfo_70" vType="DEFAULT_VEHTYPE" speedFactor="0.75" vaporized=""/>
    <tripinfo id="80" depart="12.00" departLane="94_4way_33to4way_42_0" departPos="5.10" departSpeed="0.00" departDelay="0.90" arrival="70.00" arrivalLane="132_4way_60to4way_61_0" arrivalPos="85.60" arrivalSpeed="5.32" duration="58.00" routeLength="375.13" waitingTime="12.00" waitingCount="1" stopTime="0.00" timeLoss="21.97" rerouteNo="0" devices="tripinfo_80" vType="DEFAULT_VEHTYPE" speedFactor="0.78" vaporized=""/>
    <tripinfo id="94" depart="14.00" departLane="95_4way_34to4way_43_0" departPos="5.10" departSpeed="0.00" departDelay="0.95" arrival="70.00" arrivalLane="55_4way_70to3way_79_0" arrivalPos="85.60" arrivalSpeed="5.99" duration="56.00" routeLength="480.50" waitingTime="15.00" waitingCount="1" stopTime="0.00" timeLoss="23.91" rerouteNo="0" devices="tripinfo_94" vType="DEFAULT_VEHTYPE" speedFactor="1.08" vaporized=""/>
    <tripinfo id="185" depart="26.00" departLane="88_4way_39to4way_30_0" departPos="5.10" departSpeed="0.00" departDelay="0.32" arrival="70.00" arrivalLane="59_4way_12to4way_11_0" arrivalPos="85.60" arrivalSpeed="5.69" duration="44.00" routeLength="375.13" waitingTime="8.00" waitingCount="1" stopTime="0.00" timeLoss="20.51" rerouteNo="0" devices="tripinfo_185" vType="DEFAULT_VEHTYPE" speedFactor="1.18" vaporized=""/>
    <tripinfo id="311" depart="44.00" departLane="122_4way_56to4way_55_0" departPos="5.10" departSpeed="0.00" departDelay="0.83" arrival="70.00" arrivalLane="122_4way_56to4way_55_0" arrivalPos="85.60" arrivalSpeed="6.38" duration="26.00" routeLength="80.50" waitingTime="12.00" waitingCount="1" stopTime="0.00" timeLoss="20.20" rerouteNo="0" devices="tripinfo_311" vType="DEFAULT_VEHTYPE" speedFactor="1.04" vaporized=""/>
    <tripinfo id="330" depart="46.00" departLane="110_4way_55to4way_46_0" departPos="5.10" departSpeed="0.00" departDelay="0.20" arrival="70.00" arrivalLane="84_4way_37to4way_28_0" arrivalPos="85.60" arrivalSpeed="13.77" duration="24.00" routeLength="280.50" waitingTime="0.00" waitingCount="0" stopTime="0.00" timeLoss="4.52" rerouteNo="0" devices="tripinfo_330" vType="DEFAULT_VEHTYPE" speedFactor="1.08" vaporized=""/>
    <tripinfo id="263" depart="37.00" departLane="103_4way_49to4way_40_0" departPos="5.10" departSpeed="0.00" departDelay="0.50" arrival="72.00" arrivalLane="87_4way_31to4way_30_0" arrivalPos="85.60" arrivalSpeed="7.20" duration="35.00" routeLength="275.13" waitingTime="3.00" waitingCount="1" stopTime="0.00" timeLoss="14.44" rerouteNo="0" devices="tripinfo_263" vType="DEFAULT_VEHTYPE" speedFactor="0.99" vaporized=""/>
    <tripinfo id="352" depart="50.00" departLane="122_4way_56to4way_55_0" departPos="5.10" departSpeed="0.00" departDelay="1.14" arrival="72.00" arrivalLane="122_4way_56to4way_55_0" arrivalPos="85.60" arrivalSpeed="6.94" duration="22.00" routeLength="80.50" waitingTime="8.00" waitingCount="1" stopTime="0.00" timeLoss="16.67" rerouteNo="0" devices="tripinfo_352" vType="DEFAULT_VEHTYPE" speedFactor="1.10" vaporized=""/>
    <tripinfo id="394" depart="55.00" departLane="23_4way_13to3way_4_0" departPos="5.10" departSpeed="0.00" departDelay="0.31" arrival="72.00" arrivalLane="23_4way_13to3way_4_0" arrivalPos="85.60" arrivalSpeed="7.71" duration="17.00" routeLength="80.50" waitingTime="2.00" waitingCount="1" stopTime="0.00" timeLoss="11.13" rerouteNo="0" devices="tripinfo_394" vType="DEFAULT_VEHTYPE" speedFactor="1.02" vaporized=""/>
    <tripinfo id="0" depart="0.00" departLane="129_4way_67to4way_58_0" departPos="5.10" departSpeed="0.00" departDelay="0.00" arrival="73.00" arrivalLane="61_4way_13to4way_12_0" arrivalPos="85.60" arrivalSpeed="8.29" duration="73.00" routeLength="675.13" waitingTime="8.00" waitingCount="1" stopTime="0.00" timeLoss="23.76" rerouteNo="0" devices="tripinfo_0" vType="DEFAULT_VEHTYPE" speedFactor="1.00" vaporized=""/>
    <tripinfo id="276" depart="39.00" departLane="120_4way_51to4way_60_0" departPos="5.10" departSpeed="0.00" departDelay="0.69" arrival="73.00" arrivalLane="132_4way_60to4way_61_0" arrivalPos="85.60" arrivalSpeed="8.59" duration="34.00" routeLength="175.13" waitingTime="9.00" waitingCount="1" stopTime="0.00" timeLoss="20.09" rerouteNo="0" devices="tripinfo_276" vType="DEFAULT_VEHTYPE" speedFactor="1.02" vaporized=""/>
    <tripinfo id="27" depart="4.00" departLane="48_3way_75to4way_66_0" departPos="5.10" departSpeed="0.00" departDelay="0.25" arrival="75.00" arrivalLane="59_4way_12to4way_11_0" arrivalPos="85.60" arrivalSpeed="9.82" duration="71.00" routeLength="775.13" waitingTime="0.00" waitingCount="0" stopTime="0.00" timeLoss="15.67" rerouteNo="0" devices="tripinfo_27" vType="DEFAULT_VEHTYPE" speedFactor="1.03" vaporized=""/>
    <tripinfo id="212" depart="47.00" departLane="109_4way_46to4way_47_0" departPos="5.10" departSpeed="0.00" departDelay="17.57" arrival="75.00" arrivalLane="109_4way_46to4way_47_0" arrivalPos="85.60" arrivalSpeed="8.28" duration="28.00" routeLength="80.50" waitingTime="12.00" waitingCount="1" stopTime="0.00" timeLoss="21.97" rerouteNo="0" devices="tripinfo_212" vType="DEFAULT_VEHTYPE" speedFactor="1.00" vaporized=""/>
    <tripinfo id="307" depart="54.00" departLane="132_4way_60to4way_61_0" departPos="5.10" departSpeed="0.00" departDelay="11.39" arrival="75.00" arrivalLane="132_4way_60to4way_61_0" arrivalPos="85.60" arrivalSpeed="9.22" duration="21.00" routeLength="80.50" waitingTime="4.00" waitingCount="1" stopTime="0.00" timeLoss="15.11" rerouteNo="0" devices="tripinfo_307" vType="DEFAULT_VEHTYPE" speedFactor="1.04" vaporized=""/>
    <tripinfo id="315" depart="45.00" departLane="93_4way_34to4way_33_0" departPos="5.10" departSpeed="0.00" departDelay="1.28" arrival="75.00" arrivalLane="93_4way_34to4way_33_0" arrivalPos="85.60" arrivalSpeed="10.87" duration="30.00" routeLength="80.50" waitingTime="14.00" waitingCount="1" stopTime="0.00" timeLoss="22.94" rerouteNo="0" devices="tripinfo_315" vType="DEFAULT_VEHTYPE" speedFactor="0.93" vaporized=""/>
    <tripinfo id="17" depart="3.00" departLane="114_4way_57to4way_48_0" departPos="5.10" departSpeed="0.00" departDelay="0.64" arrival="76.00" arrivalLane="10_3way_3to3way_2_0" arrivalPos="85.60" arrivalSpeed="13.31" duration="73.00" routeLength="675.13" waitingTime="14.00" waitingCount="1" stopTime="0.00" timeLoss="25.23" rerouteNo="0" devices="tripinfo_17" vType="DEFAULT_VEHTYPE" speedFactor="1.04" vaporized=""/>
    <tripinfo id="48" depart="7.00" departLane="43_3way_73to3way_74_0" departPos="5.10" departSpeed="0.00" departDelay="0.34" arrival="76.00" arrivalLane="103_4way_49to4way_40_0" arrivalPos="85.60" arrivalSpeed="11.54" duration="69.00" routeLength="675.13" waitingTime="0.00" waitingCount="0" stopTime="0.00" timeLoss="9.60" rerouteNo="0" devices="tripinfo_48" vType="DEFAULT_VEHTYPE" speedFactor="0.83" vaporized=""/>
    <tripinfo id="10" depart="2.00" departLane="130_4way_59to4way_60_0" departPos="5.10" departSpeed="0.00" departDelay="0.61" arrival="77.00" arrivalLane="132_4way_60to4way_61_0" arrivalPos="85.60" arrivalSpeed="13.73" duration="75.00" routeLength="180.50" waitingTime="52.00" waitingCount="1" stopTime="0.00" timeLoss="61.98" rerouteNo="0" devices="tripinfo_10" vType="DEFAULT_VEHTYPE" speedFactor="1.04" vaporized=""/>
    <tripinfo id="14" depart="2.00" departLane="97_4way_37to4way_46_0" departPos="5.10" departSpeed="0.00" departDelay="0.06" arrival="77.00" arrivalLane="122_4way_55to4way_56_0" arrivalPos="85.60" arrivalSpeed="8.99" duration="75.00" routeLength="275.13" waitingTime="41.00" waitingCount="1" stopTime="0.00" timeLoss="53.61" rerouteNo="0" devices="tripinfo_14" vType="DEFAULT_VEHTYPE" speedFactor="0.95" vaporized=""/>
    <tripinfo id="39" depart="6.00" departLane="103_4way_49to4way_40_0" departPos="5.10" departSpeed="0.00" departDelay="0.59" arrival="77.00" arrivalLane="22_3way_4to3way_5_0" arrivalPos="85.60" arrivalSpeed="13.59" duration="71.00" routeLength="580.29" waitingTime="20.00" waitingCount="1" stopTime="0.00" timeLoss="29.68" rerouteNo="0" devices="tripinfo_39" vType="DEFAULT_VEHTYPE" speedFactor="1.05" vaporized=""/>
    <tripinfo id="57" depart="8.00" departLane="115_4way_49to4way_50_0" departPos="5.10" departSpeed="0.00" departDelay="0.09" arrival="77.00" arrivalLane="117_4way_50to4way_51_0" arrivalPos="85.60" arrivalSpeed="13.11" duration="69.00" routeLength="180.50" waitingTime="48.00" waitingCount="1" stopTime="0.00" timeLoss="55.18" rerouteNo="0" devices="tripinfo_57" vType="DEFAULT_VEHTYPE" speedFactor="0.97" vaporized=""/>
    <tripinfo id="60" depart="9.00" departLane="111_4way_48to4way_47_0" departPos="5.10" departSpeed="0.00" departDelay="0.67" arrival="77.00" arrivalLane="109_4way_47to4way_46_0" arrivalPos="85.60" arrivalSpeed="15.28" duration="68.00" routeLength="180.50" waitingTime="47.00" waitingCount="1" stopTime="0.00" timeLoss="55.89" rerouteNo="0" devices="tripinfo_60" vType="DEFAULT_VEHTYPE" speedFactor="1.12" vaporized=""/>
    <tripinfo id="75" depart="11.00" departLane="93_4way_33to4way_34_0" departPos="5.10" departSpeed="0.00" departDelay="0.59" arrival="77.00" arrivalLane="19_4way_34to3way_35_0" arrivalPos="85.60" arrivalSpeed="13.83" duration="66.00" routeLength="180.50" waitingTime="43.00" waitingCount="1" stopTime="0.00" timeLoss="53.29" rerouteNo="0" devices="tripinfo_75" vType="DEFAULT_VEHTYPE" speedFactor="1.09" vaporized=""/>
    <tripinfo id="112" depart="16.00" departLane="66_4way_14to4way_23_0" departPos="5.10" departSpeed="0.00" departDelay="0.45" arrival="77.00" arrivalLane="93_4way_33to4way_34_0" arrivalPos="85.60" arrivalSpeed="12.19" duration="61.00" routeLength="375.13" waitingTime="21.00" waitingCount="1" stopTime="0.00" timeLoss="31.46" rerouteNo="0" devices="tripinfo_112" vType="DEFAULT_VEHTYPE" speedFactor="0.95" vaporized=""/>
    <tripinfo id="145" depart="21.00" departLane="50_3way_76to4way_67_0" departPos="5.10" departSpeed="0.00" departDelay="0.87" arrival="77.00" arrivalLane="111_4way_48to4way_47_0" arrivalPos="85.60" arrivalSpeed="12.09" duration="56.00" routeLength="475.13" waitingTime="7.00" waitingCount="1" stopTime="0.00" timeLoss="19.48" rerouteNo="0" devices="tripinfo_145" vType="DEFAULT_VEHTYPE" speedFactor="0.96" vaporized=""/>