<?xml version="1.0" encoding="UTF-8"?>

<!-- generated on 2023-07-28 08:57:48 by Eclipse SUMO sumo Version 1.12.0
<configuration xmlns:xsi="http://www.w3.org/2001/XMLSchema-instance" xsi:noNamespaceSchemaLocation="http://sumo.dlr.de/xsd/sumoConfiguration.xsd">

    <input>
        <net-file value="../../data_generation/sq.net.xml"/>
        <route-files value="../../data_generation/sq.rou.xml"/>
    </input>

    <output>
        <tripinfo-output value="tripinfo.xml"/>
        <statistic-output value="statistic.xml"/>
    </output>

    <time>
        <begin value="0"/>
        <end value="3600"/>
    </time>

    <processing>
        <time-to-teleport value="-1"/>
    </processing>

    <traci_server>
        <remote-port value="37673"/>
    </traci_server>

    <random_number>
        <seed value="1395"/>
    </random_number>

    <gui_only>
        <gui-settings-file value="../../data_generation/view_HY_0402.xml"/>
    </gui_only>

</configuration>
-->

<tripinfos xmlns:xsi="http://www.w3.org/2001/XMLSchema-instance" xsi:noNamespaceSchemaLocation="http://sumo.dlr.de/xsd/tripinfo_file.xsd">
    <tripinfo id="15" depart="3.00" departLane="80_4way_9to4way_8_0" departPos="5.10" departSpeed="0.00" departDelay="0.32" arrival="12.00" arrivalLane="80_4way_9to4way_8_0" arrivalPos="85.60" arrivalSpeed="13.60" duration="9.00" routeLength="80.50" waitingTime="0.00" waitingCount="0" stopTime="0.00" timeLoss="3.25" rerouteNo="0" devices="tripinfo_15" vType="DEFAULT_VEHTYPE" speedFactor="1.05" vaporized=""/>
    <tripinfo id="12" depart="3.00" departLane="17_4way_26to3way_27_0" departPos="5.10" departSpeed="0.00" departDelay="0.86" arrival="21.00" arrivalLane="12_3way_27to3way_20_0" arrivalPos="85.60" arrivalSpeed="16.03" duration="18.00" routeLength="175.13" waitingTime="0.00" waitingCount="0" stopTime="0.00" timeLoss="5.82" rerouteNo="0" devices="tripinfo_12" vType="DEFAULT_VEHTYPE" speedFactor="1.16" vaporized=""/>
    <tripinfo id="14" depart="3.00" departLane="35_4way_38to3way_45_0" departPos="5.10" departSpeed="0.00" departDelay="0.50" arrival="22.00" arrivalLane="34_3way_45to3way_46_0" arrivalPos="85.60" arrivalSpeed="12.41" duration="19.00" routeLength="175.13" waitingTime="0.00" waitingCount="0" stopTime="0.00" timeLoss="4.83" rerouteNo="0" devices="tripinfo_14" vType="DEFAULT_VEHTYPE" speedFactor="0.95" vaporized=""/>
    <tripinfo id="19" depart="4.00" departLane="21_3way_3to4way_10_0" departPos="5.10" departSpeed="0.00" departDelay="0.61" arrival="22.00" arrivalLane="42_4way_10to4way_17_0" arrivalPos="85.60" arrivalSpeed="12.22" duration="18.00" routeLength="180.50" waitingTime="0.00" waitingCount="0" stopTime="0.00" timeLoss="3.37" rerouteNo="0" devices="tripinfo_19" vType="DEFAULT_VEHTYPE" speedFactor="0.89" vaporized=""/>
    <tripinfo id="64" depart="12.00" departLane="52_4way_16to4way_9_0" departPos="5.10" departSpeed="0.00" departDelay="0.58" arrival="22.00" arrivalLane="52_4way_16to4way_9_0" arrivalPos="85.60" arrivalSpeed="12.83" duration="10.00" routeLength="80.50" waitingTime="0.00" waitingCount="0" stopTime="0.00" timeLoss="3.23" rerouteNo="0" devices="tripinfo_64" vType="DEFAULT_VEHTYPE" speedFactor="0.96" vaporized=""/>
    <tripinfo id="61" depart="14.00" departLane="33_3way_44to4way_37_0" departPos="5.10" departSpeed="0.00" departDelay="3.11" arrival="23.00" arrivalLane="33_3way_44to4way_37_0" arrivalPos="85.60" arrivalSpeed="13.02" duration="9.00" routeLength="80.50" waitingTime="0.00" waitingCount="0" stopTime="0.00" timeLoss="3.20" rerouteNo="0" devices="tripinfo_61" vType="DEFAULT_VEHTYPE" speedFactor="1.01" vaporized=""/>
    <tripinfo id="38" depart="7.00" departLane="42_4way_17to4way_10_0" departPos="5.10" departSpeed="0.00" departDelay="0.22" arrival="24.00" arrivalLane="21_4way_10to3way_3_0" arrivalPos="85.60" arrivalSpeed="12.87" duration="17.00" routeLength="180.50" waitingTime="0.00" waitingCount="0" stopTime="0.00" timeLoss="3.33" rerouteNo="0" devices="tripinfo_38" vType="DEFAULT_VEHTYPE" speedFactor="1.00" vaporized=""/>
    <tripinfo id="69" depart="13.00" departLane="53_4way_17to4way_18_0" departPos="5.10" departSpeed="0.00" departDelay="0.68" arrival="24.00" arrivalLane="53_4way_17to4way_18_0" arrivalPos="85.60" arrivalSpeed="10.81" duration="11.00" routeLength="80.50" waitingTime="0.00" waitingCount="0" stopTime="0.00" timeLoss="3.02" rerouteNo="0" devices="tripinfo_69" vType="DEFAULT_VEHTYPE" speedFactor="0.82" vaporized=""/>
    <tripinfo id="79" depart="16.00" departLane="73_4way_32to4way_33_0" departPos="5.10" departSpeed="0.00" departDelay="1.90" arrival="26.00" arrivalLane="73_4way_32to4way_33_0" arrivalPos="85.60" arrivalSpeed="11.19" duration="10.00" routeLength="80.50" waitingTime="0.00" waitingCount="0" stopTime="0.00" timeLoss="3.49" rerouteNo="0" devices="tripinfo_79" vType="DEFAULT_VEHTYPE" speedFactor="0.90" vaporized=""/>
    <tripinfo id="95" depart="17.00" departLane="36_3way_46to3way_47_0" departPos="5.10" departSpeed="0.00" departDelay="0.04" arrival="27.00" arrivalLane="36_3way_46to3way_47_0" arrivalPos="85.60" arrivalSpeed="11.13" duration="10.00" routeLength="80.50" waitingTime="0.00" waitingCount="0" stopTime="0.00" timeLoss="2.62" rerouteNo="0" devices="tripinfo_95" vType="DEFAULT_VEHTYPE" speedFactor="0.88" vaporized=""/>
    <tripinfo id="102" depart="19.00" departLane="29_3way_41to4way_40_0" departPos="5.10" departSpeed="0.00" departDelay="0.79" arrival="29.00" arrivalLane="29_3way_41to4way_40_0" arrivalPos="85.60" arrivalSpeed="14.08" duration="10.00" routeLength="80.50" waitingTime="0.00" waitingCount="0" stopTime="0.00" timeLoss="3.77" rerouteNo="0" devices="tripinfo_102" vType="DEFAULT_VEHTYPE" speedFactor="1.05" vaporized=""/>
    <tripinfo id="21" depart="4.00" departLane="18_3way_28to3way_35_0" departPos="5.10" departSpeed="0.00" departDelay="0.25" arrival="32.00" arrivalLane="24_3way_35to3way_43_0" arrivalPos="182.40" arrivalSpeed="10.17" duration="28.00" routeLength="277.30" waitingTime="0.00" waitingCount="0" stopTime="0.00" timeLoss="3.27" rerouteNo="0" devices="tripinfo_21" vType="DEFAULT_VEHTYPE" speedFactor="0.82" vaporized=""/>
    <tripinfo id="123" depart="22.00" departLane="72_4way_31to4way_38_0" departPos="5.10" departSpeed="0.00" departDelay="0.04" arrival="32.00" arrivalLane="72_4way_31to4way_38_0" arrivalPos="85.60" arrivalSpeed="14.30" duration="10.00" routeLength="80.50" waitingTime="0.00" waitingCount="0" stopTime="0.00" timeLoss="3.86" rerouteNo="0" devices="tripinfo_123" vType="DEFAULT_VEHTYPE" speedFactor="1.06" vaporized=""/>
    <tripinfo id="100" depart="18.00" departLane="80_4way_8to4way_9_0" departPos="5.10" departSpeed="0.00" departDelay="0.15" arrival="33.00" arrivalLane="43_4way_9to4way_10_0" arrivalPos="85.60" arrivalSpeed="16.09" duration="15.00" routeLength="180.50" waitingTime="0.00" waitingCount="0" stopTime="0.00" timeLoss="3.71" rerouteNo="0" devices="tripinfo_100" vType="DEFAULT_VEHTYPE" speedFactor="1.20" vaporized=""/>
    <tripinfo id="70" depart="14.00" departLane="46_4way_19to4way_12_0" departPos="5.10" departSpeed="0.00" departDelay="1.50" arrival="35.00" arrivalLane="39_4way_12to3way_5_0" arrivalPos="85.60" arrivalSpeed="10.32" duration="21.00" routeLength="180.50" waitingTime="0.00" waitingCount="0" stopTime="0.00" timeLoss="3.14" rerouteNo="0" devices="tripinfo_70" vType="DEFAULT_VEHTYPE" speedFactor="0.75" vaporized=""/>
    <tripinfo id="152" depart="28.00" departLane="26_3way_5to3way_4_0" departPos="5.10" departSpeed="0.00" departDelay="0.87" arrival="38.00" arrivalLane="26_3way_5to3way_4_0" arrivalPos="85.60" arrivalSpeed="11.58" duration="10.00" routeLength="80.50" waitingTime="0.00" waitingCount="0" stopTime="0.00" timeLoss="3.14" rerouteNo="0" devices="tripinfo_152" vType="DEFAULT_VEHTYPE" speedFactor="0.89" vaporized=""/>
    <tripinfo id="159" depart="29.00" departLane="42_4way_17to4way_10_0" departPos="5.10" departSpeed="0.00" departDelay="0.62" arrival="38.00" arrivalLane="42_4way_17to4way_10_0" arrivalPos="85.60" arrivalSpeed="13.70" duration="9.00" routeLength="80.50" waitingTime="0.00" waitingCount="0" stopTime="0.00" timeLoss="3.04" rerouteNo="0" devices="tripinfo_159" vType="DEFAULT_VEHTYPE" speedFactor="0.99" vaporized=""/>
    <tripinfo id="56" depart="10.00" departLane="54_4way_17to4way_24_0" departPos="5.10" departSpeed="0.00" departDelay="0.00" arrival="44.00" arrivalLane="78_4way_38to4way_39_0" arrivalPos="85.60" arrivalSpeed="13.71" duration="34.00" routeLength="375.13" waitingTime="0.00" waitingCount="0" stopTime="0.00" timeLoss="6.09" rerouteNo="0" devices="tripinfo_56" vType="DEFAULT_VEHTYPE" speedFactor="1.02" vaporized=""/>
    <tripinfo id="194" depart="35.00" departLane="18_3way_28to3way_35_0" departPos="5.10" departSpeed="0.00" departDelay="0.37" arrival="44.00" arrivalLane="18_3way_28to3way_35_0" arrivalPos="85.60" arrivalSpeed="14.59" duration="9.00" routeLength="80.50" waitingTime="0.00" waitingCount="0" stopTime="0.00" timeLoss="3.03" rerouteNo="0" devices="tripinfo_194" vType="DEFAULT_VEHTYPE" speedFactor="1.10" vaporized=""/>
    <tripinfo id="62" depart="12.00" departLane="8_3way_7to3way_14_0" departPos="5.10" departSpeed="0.00" departDelay="0.93" arrival="45.00" arrivalLane="58_4way_22to4way_23_0" arrivalPos="85.60" arrivalSpeed="14.13" duration="33.00" routeLength="375.13" waitingTime="0.00" waitingCount="0" stopTime="0.00" timeLoss="6.00" rerouteNo="0" devices="tripinfo_62" vType="DEFAULT_VEHTYPE" speedFactor="1.05" vaporized=""/>
    <tripinfo id="155" depart="28.00" departLane="63_4way_24to4way_31_0" departPos="5.10" departSpeed="0.00" departDelay="0.33" arrival="48.00" arrivalLane="71_4way_31to4way_32_0" arrivalPos="85.60" arrivalSpeed="12.07" duration="20.00" routeLength="175.13" waitingTime="0.00" waitingCount="0" stopTime="0.00" timeLoss="4.94" rerouteNo="0" devices="tripinfo_155" vType="DEFAULT_VEHTYPE" speedFactor="0.94" vaporized=""/>
    <tripinfo id="162" depart="32.00" departLane="42_4way_17to4way_10_0" departPos="5.10" departSpeed="0.00" departDelay="3.08" arrival="50.00" arrivalLane="21_4way_10to3way_3_0" arrivalPos="85.60" arrivalSpeed="12.91" duration="18.00" routeLength="180.50" waitingTime="0.00" waitingCount="0" stopTime="0.00" timeLoss="4.02" rerouteNo="0" devices="tripinfo_162" vType="DEFAULT_VEHTYPE" speedFactor="0.96" vaporized=""/>
    <tripinfo id="47" depart="9.00" departLane="35_3way_45to4way_38_0" departPos="5.10" departSpeed="0.00" departDelay="0.61" arrival="52.00" arrivalLane="42_4way_17to4way_10_0" arrivalPos="85.60" arrivalSpeed="12.06" duration="43.00" routeLength="480.50" waitingTime="0.00" waitingCount="0" stopTime="0.00" timeLoss="4.31" rerouteNo="0" devices="tripinfo_47" vType="DEFAULT_VEHTYPE" speedFactor="0.90" vaporized=""/>
    <tripinfo id="182" depart="33.00" departLane="70_4way_30to4way_37_0" departPos="5.10" departSpeed="0.00" departDelay="0.51" arrival="53.00" arrivalLane="77_4way_37to4way_38_0" arrivalPos="85.60" arrivalSpeed="12.18" duration="20.00" routeLength="175.13" waitingTime="0.00" waitingCount="0" stopTime="0.00" timeLoss="5.45" rerouteNo="0" devices="tripinfo_182" vType="DEFAULT_VEHTYPE" speedFactor="0.90" vaporized=""/>
    <tripinfo id="188" depart="34.00" departLane="44_4way_12to4way_11_0" departPos="5.10" departSpeed="0.00" departDelay="0.44" arrival="53.00" arrivalLane="45_4way_11to4way_18_0" arrivalPos="85.60" arrivalSpeed="13.30" duration="19.00" routeLength="175.13" waitingTime="0.00" waitingCount="0" stopTime="0.00" timeLoss="5.38" rerouteNo="0" devices="tripinfo_188" vType="DEFAULT_VEHTYPE" speedFactor="1.00" vaporized=""/>
    <tripinfo id="169" depart="32.00" departLane="33_3way_44to4way_37_0" departPos="5.10" departSpeed="0.00" departDelay="1.83" arrival="58.00" arrivalLane="67_4way_30to4way_29_0" arrivalPos="85.60" arrivalSpeed="14.07" duration="26.00" routeLength="275.13" waitingTime="0.00" waitingCount="0" stopTime="0.00" timeLoss="6.29" rerouteNo="0" devices="tripinfo_169" vType="DEFAULT_VEHTYPE" speedFactor="1.09" vaporized=""/>
    <tripinfo id="277" depart="50.00" departLane="79_4way_39to4way_40_0" departPos="5.10" departSpeed="0.00" departDelay="0.55" arrival="59.00" arrivalLane="79_4way_39to4way_40_0" arrivalPos="85.60" arrivalSpeed="11.55" duration="9.00" routeLength="80.50" waitingTime="0.00" waitingCount="0" stopTime="0.00" timeLoss="2.34" rerouteNo="0" devices="tripinfo_277" vType="DEFAULT_VEHTYPE" speedFactor="0.88" vaporized=""/>
    <tripinfo id="224" depart="44.00" departLane="21_3way_3to4way_10_0" departPos="5.10" departSpeed="0.00" departDelay="4.02" arrival="60.00" arrivalLane="42_4way_10to4way_17_0" arrivalPos="85.60" arrivalSpeed="14.66" duration="16.00" routeLength="180.50" waitingTime="0.00" waitingCount="0" stopTime="0.00" timeLoss="3.67" rerouteNo="0" devices="tripinfo_224" vType="DEFAULT_VEHTYPE" speedFactor="1.06" vaporized=""/>
    <tripinfo id="297" depart="54.00" departLane="21_3way_3to4way_10_0" departPos="5.10" departSpeed="0.00" departDelay="0.98" arrival="63.00" arrivalLane="21_3way_3to4way_10_0" arrivalPos="85.60" arrivalSpeed="16.29" duration="9.00" routeLength="80.50" waitingTime="0.00" waitingCount="0" stopTime="0.00" timeLoss="4.11" rerouteNo="0" devices="tripinfo_297" vType="DEFAULT_VEHTYPE" speedFactor="1.22" vaporized=""/>
    <tripinfo id="300" depart="54.00" departLane="19_3way_28to4way_29_0" departPos="5.10" departSpeed="0.00" departDelay="0.45" arrival="64.00" arrivalLane="19_3way_28to4way_29_0" arrivalPos="85.60" arrivalSpeed="14.15" duration="10.00" routeLength="80.50" waitingTime="0.00" waitingCount="0" stopTime="0.00" timeLoss="3.81" rerouteNo="0" devices="tripinfo_300" vType="DEFAULT_VEHTYPE" speedFactor="1.08" vaporized=""/>
    <tripinfo id="80" depart="15.00" departLane="14_3way_28to3way_21_0" departPos="5.10" departSpeed="0.00" departDelay="0.72" arrival="66.00" arrivalLane="2_3way_7to3way_1_0" arrivalPos="188.80" arrivalSpeed="10.51" duration="51.00" routeLength="483.70" waitingTime="0.00" waitingCount="0" stopTime="0.00" timeLoss="5.48" rerouteNo="0" devices="tripinfo_80" vType="DEFAULT_VEHTYPE" speedFactor="0.78" vaporized=""/>
    <tripinfo id="244" depart="49.00" departLane="9_3way_14to4way_15_0" departPos="5.10" departSpeed="0.00" departDelay="5.45" arrival="67.00" arrivalLane="49_4way_15to4way_8_0" arrivalPos="85.60" arrivalSpeed="15.42" duration="18.00" routeLength="175.13" waitingTime="0.00" waitingCount="0" stopTime="0.00" timeLoss="5.75" rerouteNo="0" devices="tripinfo_244" vType="DEFAULT_VEHTYPE" speedFactor="1.16" vaporized=""/>
    <tripinfo id="165" depart="30.00" departLane="35_3way_45to4way_38_0" departPos="5.10" departSpeed="0.00" departDelay="0.55" arrival="69.00" arrivalLane="50_4way_17to4way_16_0" arrivalPos="85.60" arrivalSpeed="13.93" duration="39.00" routeLength="475.13" waitingTime="0.00" waitingCount="0" stopTime="0.00" timeLoss="6.33" rerouteNo="0" devices="tripinfo_165" vType="DEFAULT_VEHTYPE" speedFactor="1.07" vaporized=""/>
    <tripinfo id="328" depart="59.00" departLane="7_3way_21to3way_14_0" departPos="5.10" departSpeed="0.00" departDelay="0.45" arrival="69.00" arrivalLane="7_3way_21to3way_14_0" arrivalPos="85.60" arrivalSpeed="11.90" duration="10.00" routeLength="80.50" waitingTime="0.00" waitingCount="0" stopTime="0.00" timeLoss="2.99" rerouteNo="0" devices="tripinfo_328" vType="DEFAULT_VEHTYPE" speedFactor="0.93" vaporized=""/>
    <tripinfo id="50" depart="12.00" departLane="52_4way_9to4way_16_0" departPos="5.10" departSpeed="0.00" departDelay="3.07" arrival="70.00" arrivalLane="52_4way_9to4way_16_0" arrivalPos="85.60" arrivalSpeed="5.34" duration="58.00" routeLength="80.50" waitingTime="45.00" waitingCount="1" stopTime="0.00" timeLoss="52.11" rerouteNo="0" devices="tripinfo_50" vType="DEFAULT_VEHTYPE" speedFactor="1.01" vaporized=""/>
    <tripinfo id="215" depart="39.00" departLane="9_3way_14to4way_15_0" departPos="5.10" departSpeed="0.00" departDelay="0.62" arrival="70.00" arrivalLane="50_4way_16to4way_17_0" arrivalPos="85.60" arrivalSpeed="5.82" duration="31.00" routeLength="280.50" waitingTime="1.00" waitingCount="1" stopTime="0.00" timeLoss="10.68" rerouteNo="0" devices="tripinfo_215" vType="DEFAULT_VEHTYPE" speedFactor="1.00" vaporized=""/>
    <tripinfo id="264" depart="49.00" departLane="42_4way_17to4way_10_0" departPos="5.10" departSpeed="0.00" departDelay="1.88" arrival="70.00" arrivalLane="43_4way_10to4way_9_0" arrivalPos="85.60" arrivalSpeed="11.98" duration="21.00" routeLength="175.13" waitingTime="0.00" waitingCount="0" stopTime="0.00" timeLoss="4.73" rerouteNo="0" devices="tripinfo_264" vType="DEFAULT_VEHTYPE" speedFactor="0.86" vaporized=""/>
    <tripinfo id="269" depart="49.00" departLane="53_4way_18to4way_17_0" departPos="5.10" departSpeed="0.00" departDelay="0.98" arrival="70.00" arrivalLane="53_4way_18to4way_17_0" arrivalPos="85.60" arrivalSpeed="6.62" duration="21.00" routeLength="80.50" waitingTime="7.00" waitingCount="1" stopTime="0.00" timeLoss="15.45" rerouteNo="0" devices="tripinfo_269" vType="DEFAULT_VEHTYPE" speedFactor="1.11" vaporized=""/>
    <tripinfo id="132" depart="24.00" departLane="79_4way_39to4way_40_0" departPos="5.10" departSpeed="0.00" departDelay="0.44" arrival="71.00" arrivalLane="75_4way_40to4way_33_0" arrivalPos="85.60" arrivalSpeed="5.94" duration="47.00" routeLength="175.13" waitingTime="22.00" waitingCount="1" stopTime="0.00" timeLoss="31.21" rerouteNo="0" devices="tripinfo_132" vType="DEFAULT_VEHTYPE" speedFactor="0.86" vaporized=""/>
    <tripinfo id="343" depart="62.00" departLane="19_3way_28to4way_29_0" departPos="5.10" departSpeed="0.00" departDelay="0.77" arrival="71.00" arrivalLane="19_3way_28to4way_29_0" arrivalPos="85.60" arrivalSpeed="13.11" duration="9.00" routeLength="80.50" waitingTime="0.00" waitingCount="0" stopTime="0.00" timeLoss="2.99" rerouteNo="0" devices="tripinfo_343" vType="DEFAULT_VEHTYPE" speedFactor="1.03" vaporized=""/>
    <tripinfo id="99" depart="18.00" departLane="20_3way_4to3way_3_0" departPos="5.10" departSpeed="0.00" departDelay="0.33" arrival="72.00" arrivalLane="10_3way_3to3way_2_0" arrivalPos="85.60" arrivalSpeed="7.34" duration="54.00" routeLength="180.50" waitingTime="32.00" waitingCount="1" stopTime="0.00" timeLoss="40.60" rerouteNo="0" devices="tripinfo_99" vType="DEFAULT_VEHTYPE" speedFactor="0.97" vaporized=""/>
    <tripinfo id="206" depart="39.00" departLane="75_4way_40to4way_33_0" departPos="5.10" departSpeed="0.00" departDelay="2.23" arrival="74.00" arrivalLane="75_4way_40to4way_33_0" arrivalPos="85.60" arrivalSpeed="9.11" duration="35.00" routeLength="80.50" waitingTime="19.00" waitingCount="1" stopTime="0.00" timeLoss="28.10" rerouteNo="0" devices="tripinfo_206" vType="DEFAULT_VEHTYPE" speedFactor="0.92" vaporized=""/>
    <tripinfo id="18" depart="4.00" departLane="8_3way_7to3way_14_0" departPos="5.10" departSpeed="0.00" departDelay="0.79" arrival="75.00" arrivalLane="14_3way_21to3way_28_0" arrivalPos="85.60" arrivalSpeed="9.94" duration="71.00" routeLength="280.50" waitingTime="37.00" waitingCount="1" stopTime="0.00" timeLoss="49.38" rerouteNo="0" devices="tripinfo_18" vType="DEFAULT_VEHTYPE" speedFactor="0.96" vaporized=""/>
    <tripinfo id="314" depart="57.00" departLane="5_3way_5to3way_13_0" departPos="5.10" departSpeed="0.00" departDelay="0.95" arrival="75.00" arrivalLane="5_3way_5to3way_13_0" arrivalPos="188.80" arrivalSpeed="12.49" duration="18.00" routeLength="183.70" waitingTime="0.00" waitingCount="0" stopTime="0.00" timeLoss="3.74" rerouteNo="0" devices="tripinfo_314" vType="DEFAULT_VEHTYPE" speedFactor="0.95" vaporized=""/>
    <tripinfo id="106" depart="19.00" departLane="56_4way_25to4way_18_0" departPos="5.10" departSpeed="0.00" departDelay="0.08" arrival="76.00" arrivalLane="50_4way_17to4way_16_0" arrivalPos="85.60" arrivalSpeed="15.12" duration="57.00" routeLength="275.13" waitingTime="27.00" waitingCount="1" stopTime="0.00" timeLoss="39.13" rerouteNo="0" devices="tripinfo_106" vType="DEFAULT_VEHTYPE" speedFactor="1.16" vaporized=""/>
    <tripinfo id="107" depart="20.00" departLane="74_4way_39to4way_32_0" departPos="5.10" departSpeed="0.00" departDelay="0.90" arrival="76.00" arrivalLane="69_4way_31to4way_30_0" arrivalPos="85.60" arrivalSpeed="15.06" duration="56.00" routeLength="275.13" waitingTime="25.00" waitingCount="1" stopTime="0.00" timeLoss="37.36" rerouteNo="0" devices="tripinfo_107" vType="DEFAULT_VEHTYPE" speedFactor="1.10" vaporized=""/>
    <tripinfo id="24" depart="5.00" departLane="16_3way_27to3way_34_0" departPos="5.10" departSpeed="0.00" departDelay="0.72" arrival="77.00" arrivalLane="22_3way_34to3way_41_0" arrivalPos="85.60" arrivalSpeed="12.60" duration="72.00" routeLength="180.50" waitingTime="50.00" waitingCount="1" stopTime="0.00" timeLoss="58.03" rerouteNo="0" devices="tripinfo_24" vType="DEFAULT_VEHTYPE" speedFactor="0.97" vaporized=""/>
    <tripinfo id="42" depart="8.00" departLane="42_4way_10to4way_17_0" departPos="5.10" departSpeed="0.00" departDelay="0.50" arrival="77.00" arrivalLane="30_3way_44to3way_43_0" arrivalPos="85.60" arrivalSpeed="13.39" duration="69.00" routeLength="680.29" waitingTime="6.00" waitingCount="1" stopTime="0.00" timeLoss="18.34" rerouteNo="0" devices="tripinfo_42" vType="DEFAULT_VEHTYPE" speedFactor="0.99" vaporized=""/>
    <tripinfo id="96" depart="18.00" departLane="2_3way_7to3way_1_0" departPos="5.10" departSpeed="0.00" departDelay="0.86" arrival="77.00" arrivalLane="10_3way_2to3way_3_0" arrivalPos="85.60" arrivalSpeed="12.86" duration="59.00" routeLength="383.70" waitingTime="20.00" waitingCount="1" stopTime="0.00" timeLoss="29.89" rerouteNo="0" devices="tripinfo_96" vType="DEFAULT_VEHTYPE" speedFactor="0.95" vaporized=""/>
    <tripinfo id="149" depart="28.00" departLane="21_3way_3to4way_10_0" departPos="5.10" departSpeed="0.00" departDelay="1.40" arrival="77.00" arrivalLane="6_4way_12to3way_13_0" arrivalPos="85.60" arrivalSpeed="12.30" duration="49.00" routeLength="375.13" waitingTime="7.00" waitingCount="1" stopTime="0.00" timeLoss="20.02" rerouteNo="0" devices="tripinfo_149" vType="DEFAULT_VEHTYPE" speedFactor="0.95" vaporized=""/>
    <tripinfo id="267" depart="48.00" departLane="51_4way_16to4way_23_0" departPos="5.10" departSpeed="0.00" departDelay="0.34" arrival="77.00" arrivalLane="51_4way_16to4way_23_0" arrivalPos="85.60" arrivalSpeed="12.26" duration="29.00" routeLength="80.50" waitingTime="12.00" waitingCount="1" stopTime="0.00" timeLoss="23.02" rerouteNo="0" devices="tripinfo_267" vType="DEFAULT_VEHTYPE" speedFactor="1.11" vaporized=""/>
    <tripinfo id="13" depart="3.00" departLane="7_3way_14to3way_21_0" departPos="5.10" departSpeed="0.00" departDelay="0.68" arrival="78.00" arrivalLane="19_3way_28to4way_29_0" arrivalPos="85.60" arrivalSpeed="9.50" duration="75.00" routeLength="275.13" waitingTime="44.00" waitingCount="1" stopTime="0.00" timeLoss="53.56" rerouteNo="0" devices="tripinfo_13" vType="DEFAULT_VEHTYPE" speedFactor="0.98" vaporized=""/>
    <tripinfo id="48" depart="9.00" departLane="73_4way_33to4way_32_0" departPos="5.10" departSpeed="0.00" departDelay="0.43" arrival="78.00" arrivalLane="71_4way_32to4way_31_0" arrivalPos="85.60" arrivalSpeed="11.45" duration="69.00" routeLength="180.50" waitingTime="46.00" waitingCount="1" stopTime="0.00" timeLoss="52.87" rerouteNo="0" devices="tripinfo_48" vType="DEFAULT_VEHTYPE" speedFactor="0.83" vaporized=""/>
    <tripinfo id="136" depart="25.00" departLane="74_4way_39to4way_32_0" departPos="5.10" departSpeed="0.00" departDelay="0.72" arrival="78.00" arrivalLane="69_4way_31to4way_30_0" arrivalPos="85.60" arrivalSpeed="13.95" duration="53.00" routeLength="275.13" waitingTime="22.00" waitingCount="1" stopTime="0.00" timeLoss="32.86" rerouteNo="0" devices="tripinfo_136" vType="DEFAULT_VEHTYPE" speedFactor="1.01" vaporized=""/>
    <tripinfo id="93" depart="17.00" departLane="66_4way_26to4way_33_0" departPos="5.10" departSpeed="0.00" departDelay="0.40" arrival="79.00" arrivalLane="23_4way_33to3way_34_0" arrivalPos="85.60" arrivalSpeed="13.80" duration="62.00" routeLength="175.13" waitingTime="40.00" waitingCount="1" stopTime="0.00" timeLoss="48.06" rerouteNo="0" devices="tripinfo_93" vType="DEFAULT_VEHTYPE" speedFactor="1.00" vaporized=""/>
    <tripinfo id="129" depart="27.00" departLane="41_4way_11to4way_10_0" departPos="5.10" departSpeed="0.00" departDelay="3.97" arrival="79.00" arrivalLane="41_4way_11to4way_10_0" arrivalPos="85.60" arrivalSpeed="7.95" duration="52.00" routeLength="80.50" waitingTime="35.00" waitingCount="1" stopTime="0.00" timeLoss="46.87" rerouteNo="0" devices="tripinfo_129" vType="DEFAULT_VEHTYPE" speedFactor="1.14" vaporized=""/>
    <tripinfo id="221" depart="40.00" departLane="79_4way_40to4way_39_0" departPos="5.10" departSpeed="0.00" departDelay="0.55" arrival="79.00" arrivalLane="32_3way_45to3way_44_0" arrivalPos="85.60" arrivalSpeed="11.42" duration="39.00" routeLength="374.92" waitingTime="0.00" waitingCount="0" stopTime="0.00" timeLoss="7.31" rerouteNo="0" devices="tripinfo_221" vType="DEFAULT_VEHTYPE" speedFactor="0.90" vaporized=""/>
    <tripinfo id="246" depart="44.00" departLane="18_3way_28to3way_35_0" departPos="5.10" departSpeed="0.00" departDelay="0.09" arrival="79.00" arrivalLane="30_3way_43to3way_44_0" arrivalPos="85.60" arrivalSpeed="10.10" duration="35.00" routeLength="377.30" waitingTime="0.00" waitingCount="0" stopTime="0.00" timeLoss="11.83" rerouteNo="0" devices="tripinfo_246" vType="DEFAULT_VEHTYPE" speedFactor="1.17" vaporized=""/>
    <tripinfo id="247" depart="46.00" departLane="69_4way_31to4way_30_0" departPos="5.10" departSpeed="0.00" departDelay="1.91" arrival="79.00" arrivalLane="67_4way_30to4way_29_0" arrivalPos="85.60" arrivalSpeed="12.74" duration="33.00" routeLength="180.50" waitingTime="9.00" waitingCount="1" stopTime="0.00" timeLoss="20.42" rerouteNo="0" devices="tripinfo_247" vType="DEFAULT_VEHTYPE" speedFactor="1.07" vaporized=""/>
    <tripinfo id="289" depart="52.00" departLane="10_3way_3to3way_2_0" departPos="5.10" departSpeed="0.00" departDelay="0.41" arrival="79.00" arrivalLane="10_3way_3to3way_2_0" arrivalPos="85.60" arrivalSpeed="11.45" duration="27.00" routeLength="80.50" waitingTime="10.00" waitingCount="1" stopTime="0.00" timeLoss="20.76" rerouteNo="0" devices="tripinfo_289" vType="DEFAULT_VEHTYPE" speedFactor="1.03" vaporized=""/>
    <tripinfo id="299" depart="54.00" departLane="36_3way_47to3way_46_0" departPos="5.10" departSpeed="0.00" departDelay="0.63" arrival="79.00" arrivalLane="34_3way_46to3way_45_0" arrivalPos="85.60" arrivalSpeed="12.05" duration="25.00" routeLength="180.50" waitingTime="3.00" waitingCount="1" stopTime="0.00" timeLoss="10.57" rerouteNo="0" devices="tripinfo_299" vType="DEFAULT_VEHTYPE" speedFactor="0.92" vaporized=""/>
    <tripinfo id="386" depart="69.00" departLane="56_4way_18to4way_25_0" departPos="5.10" departSpeed="0.00" departDelay="0.10" arrival="79.00" arrivalLane="56_4way_18to4way_25_0" arrivalPos="85.60" arrivalSpeed="11.21" duration="10.00" routeLength="80.50" waitingTime="0.00" waitingCount="0" stopTime="0.00" timeLoss="2.79" rerouteNo="0" devices="tripinfo_386" vType="DEFAULT_VEHTYPE" speedFactor="0.82" vaporized=""/>
    <tripinfo id="112" depart="21.00" departLane="28_3way_41to3way_47_0" departPos="5.10" departSpeed="0.00" departDelay="1.01" arrival="80.00" arrivalLane="36_3way_47to3way_46_0" arrivalPos="85.60" arrivalSpeed="12.22" duration="59.00" routeLength="283.70" waitingTime="24.00" waitingCount="1" stopTime="0.00" timeLoss="37.30" rerouteNo="0" devices="tripinfo_112" vType="DEFAULT_VEHTYPE" speedFactor="0.95" vaporized=""/>
    <tripinfo id="191" depart="35.00" departLane="2_3way_7to3way_1_0" departPos="5.10" departSpeed="0.00" departDelay="0.91" arrival="80.00" arrivalLane="10_3way_2to3way_3_0" arrivalPos="85.60" arrivalSpeed="11.95" duration="45.00" routeLength="383.70" waitingTime="4.00" waitingCount="1" stopTime="0.00" timeLoss="14.97" rerouteNo="0" devices="tripinfo_191" vType="DEFAULT_VEHTYPE" speedFactor="0.94" vaporized=""/>
    <tripinfo id="232" depart="44.00" departLane="74_4way_39to4way_32_0" departPos="5.10" departSpeed="0.00" departDelay="2.59" arrival="80.00" arrivalLane="69_4way_31to4way_30_0" arrivalPos="85.60" arrivalSpeed="14.23" duration="36.00" routeLength="275.13" waitingTime="4.00" waitingCount="1" stopTime="0.00" timeLoss="16.65" rerouteNo="0" devices="tripinfo_232" vType="DEFAULT_VEHTYPE" speedFactor="1.06" vaporized=""/>
    <tripinfo id="109" depart="20.00" departLane="66_4way_26to4way_33_0" departPos="5.10" departSpeed="0.00" departDelay="0.54" arrival="81.00" arrivalLane="23_4way_33to3way_34_0" arrivalPos="85.60" arrivalSpeed="14.15" duration="61.00" routeLength="175.13" waitingTime="38.00" waitingCount="1" stopTime="0.00" timeLoss="48.22" rerouteNo="0" devices="tripinfo_109" vType="DEFAULT_VEHTYPE" speedFactor="1.04" vaporized=""/>
    <tripinfo id="331" depart="60.00" departLane="8_3way_7to3way_14_0" departPos="5.10" departSpeed="0.00" departDelay="0.92" arrival="81.00" arrivalLane="7_3way_14to3way_21_0" arrivalPos="85.60" arrivalSpeed="5.93" duration="21.00" routeLength="180.50" waitingTime="0.00" waitingCount="0" stopTime="0.00" timeLoss="6.93" rerouteNo="0" devices="tripinfo_331" vType="DEFAULT_VEHTYPE" speedFactor="0.94" vaporized=""/>
    <tripinfo id="78" depart="17.00" departLane="65_4way_32to4way_25_0" departPos="5.10" departSpeed="0.00" departDelay="3.08" arrival="82.00" arrivalLane="62_4way_25to4way_24_0" arrivalPos="85.60" arrivalSpeed="14.07" duration="65.00" routeLength="175.13" waitingTime="40.00" waitingCount="1" stopTime="0.00" timeLoss="51.49" rerouteNo="0" devices="tripinfo_78" vType="DEFAULT_VEHTYPE" speedFactor="1.03" vaporized=""/>