<?xml version="1.0" encoding="UTF-8"?>

<!-- generated on 2023-07-23 18:18:22 by Eclipse SUMO sumo Version 1.12.0
<configuration xmlns:xsi="http://www.w3.org/2001/XMLSchema-instance" xsi:noNamespaceSchemaLocation="http://sumo.dlr.de/xsd/sumoConfiguration.xsd">

    <input>
        <net-file value="../../data_generation/sq.net.xml"/>
        <route-files value="../../data_generation/sq.rou.xml"/>
    </input>

    <output>
        <tripinfo-output value="tripinfo.xml"/>
        <statistic-output value="statistic.xml"/>
    </output>

    <time>
        <begin value="0"/>
        <end value="3600"/>
    </time>

    <processing>
        <time-to-teleport value="-1"/>
    </processing>

    <traci_server>
        <remote-port value="51123"/>
    </traci_server>

    <random_number>
        <seed value="1395"/>
    </random_number>

    <gui_only>
        <gui-settings-file value="../../data_generation/view_HY_0402.xml"/>
    </gui_only>

</configuration>
-->

<tripinfos xmlns:xsi="http://www.w3.org/2001/XMLSchema-instance" xsi:noNamespaceSchemaLocation="http://sumo.dlr.de/xsd/tripinfo_file.xsd">
    <tripinfo id="7" depart="1.00" departLane="32_3way_6to3way_5_0" departPos="5.10" departSpeed="0.00" departDelay="0.16" arrival="10.00" arrivalLane="32_3way_6to3way_5_0" arrivalPos="85.60" arrivalSpeed="12.88" duration="9.00" routeLength="80.50" waitingTime="0.00" waitingCount="0" stopTime="0.00" timeLoss="2.82" rerouteNo="0" devices="tripinfo_7" vType="DEFAULT_VEHTYPE" speedFactor="0.95" vaporized=""/>
    <tripinfo id="13" depart="2.00" departLane="19_4way_30to3way_31_0" departPos="5.10" departSpeed="0.00" departDelay="0.44" arrival="11.00" arrivalLane="19_4way_30to3way_31_0" arrivalPos="85.60" arrivalSpeed="13.53" duration="9.00" routeLength="80.50" waitingTime="0.00" waitingCount="0" stopTime="0.00" timeLoss="2.71" rerouteNo="0" devices="tripinfo_13" vType="DEFAULT_VEHTYPE" speedFactor="0.98" vaporized=""/>
    <tripinfo id="9" depart="2.00" departLane="99_4way_45to4way_44_0" departPos="5.10" departSpeed="0.00" departDelay="0.92" arrival="12.00" arrivalLane="99_4way_45to4way_44_0" arrivalPos="85.60" arrivalSpeed="11.50" duration="10.00" routeLength="80.50" waitingTime="0.00" waitingCount="0" stopTime="0.00" timeLoss="3.09" rerouteNo="0" devices="tripinfo_9" vType="DEFAULT_VEHTYPE" speedFactor="0.91" vaporized=""/>
    <tripinfo id="20" depart="3.00" departLane="15_4way_25to3way_24_0" departPos="5.10" departSpeed="0.00" departDelay="0.60" arrival="12.00" arrivalLane="15_4way_25to3way_24_0" arrivalPos="85.60" arrivalSpeed="11.79" duration="9.00" routeLength="80.50" waitingTime="0.00" waitingCount="0" stopTime="0.00" timeLoss="2.34" rerouteNo="0" devices="tripinfo_20" vType="DEFAULT_VEHTYPE" speedFactor="0.89" vaporized=""/>
    <tripinfo id="18" depart="6.00" departLane="53_4way_19to4way_11_0" departPos="5.10" departSpeed="0.00" departDelay="3.84" arrival="16.00" arrivalLane="53_4way_19to4way_11_0" arrivalPos="85.60" arrivalSpeed="12.14" duration="10.00" routeLength="80.50" waitingTime="0.00" waitingCount="0" stopTime="0.00" timeLoss="3.60" rerouteNo="0" devices="tripinfo_18" vType="DEFAULT_VEHTYPE" speedFactor="0.96" vaporized=""/>
    <tripinfo id="66" depart="8.00" departLane="96_4way_50to4way_42_0" departPos="5.10" departSpeed="0.00" departDelay="0.08" arrival="18.00" arrivalLane="96_4way_50to4way_42_0" arrivalPos="85.60" arrivalSpeed="11.59" duration="10.00" routeLength="80.50" waitingTime="0.00" waitingCount="0" stopTime="0.00" timeLoss="2.98" rerouteNo="0" devices="tripinfo_66" vType="DEFAULT_VEHTYPE" speedFactor="0.86" vaporized=""/>
    <tripinfo id="71" depart="9.00" departLane="54_4way_12to4way_13_0" departPos="5.10" departSpeed="0.00" departDelay="0.48" arrival="18.00" arrivalLane="54_4way_12to4way_13_0" arrivalPos="85.60" arrivalSpeed="15.26" duration="9.00" routeLength="80.50" waitingTime="0.00" waitingCount="0" stopTime="0.00" timeLoss="3.42" rerouteNo="0" devices="tripinfo_71" vType="DEFAULT_VEHTYPE" speedFactor="1.13" vaporized=""/>
    <tripinfo id="118" depart="15.00" departLane="39_4way_50to3way_58_0" departPos="5.10" departSpeed="0.00" departDelay="0.84" arrival="24.00" arrivalLane="39_4way_50to3way_58_0" arrivalPos="85.60" arrivalSpeed="13.83" duration="9.00" routeLength="80.50" waitingTime="0.00" waitingCount="0" stopTime="0.00" timeLoss="2.96" rerouteNo="0" devices="tripinfo_118" vType="DEFAULT_VEHTYPE" speedFactor="1.05" vaporized=""/>
    <tripinfo id="126" depart="16.00" departLane="42_3way_6to4way_14_0" departPos="5.10" departSpeed="0.00" departDelay="0.88" arrival="25.00" arrivalLane="42_3way_6to4way_14_0" arrivalPos="85.60" arrivalSpeed="13.72" duration="9.00" routeLength="80.50" waitingTime="0.00" waitingCount="0" stopTime="0.00" timeLoss="2.97" rerouteNo="0" devices="tripinfo_126" vType="DEFAULT_VEHTYPE" speedFactor="1.01" vaporized=""/>
    <tripinfo id="72" depart="9.00" departLane="13_4way_22to3way_23_0" departPos="5.10" departSpeed="0.00" departDelay="0.36" arrival="26.00" arrivalLane="4_3way_23to3way_15_0" arrivalPos="85.60" arrivalSpeed="15.73" duration="17.00" routeLength="175.13" waitingTime="0.00" waitingCount="0" stopTime="0.00" timeLoss="5.52" rerouteNo="0" devices="tripinfo_72" vType="DEFAULT_VEHTYPE" speedFactor="1.15" vaporized=""/>
    <tripinfo id="125" depart="16.00" departLane="78_4way_28to4way_36_0" departPos="5.10" departSpeed="0.00" departDelay="1.00" arrival="26.00" arrivalLane="78_4way_28to4way_36_0" arrivalPos="85.60" arrivalSpeed="12.62" duration="10.00" routeLength="80.50" waitingTime="0.00" waitingCount="0" stopTime="0.00" timeLoss="2.98" rerouteNo="0" devices="tripinfo_125" vType="DEFAULT_VEHTYPE" speedFactor="0.95" vaporized=""/>
    <tripinfo id="148" depart="18.00" departLane="92_4way_38to4way_46_0" departPos="5.10" departSpeed="0.00" departDelay="0.24" arrival="27.00" arrivalLane="92_4way_38to4way_46_0" arrivalPos="85.60" arrivalSpeed="14.18" duration="9.00" routeLength="80.50" waitingTime="0.00" waitingCount="0" stopTime="0.00" timeLoss="3.32" rerouteNo="0" devices="tripinfo_148" vType="DEFAULT_VEHTYPE" speedFactor="1.07" vaporized=""/>
    <tripinfo id="10" depart="2.00" departLane="107_4way_52to4way_53_0" departPos="5.10" departSpeed="0.00" departDelay="0.80" arrival="28.00" arrivalLane="103_4way_54to4way_46_0" arrivalPos="85.60" arrivalSpeed="14.27" duration="26.00" routeLength="275.13" waitingTime="0.00" waitingCount="0" stopTime="0.00" timeLoss="6.09" rerouteNo="0" devices="tripinfo_10" vType="DEFAULT_VEHTYPE" speedFactor="1.04" vaporized=""/>
    <tripinfo id="97" depart="12.00" departLane="40_3way_59to3way_60_0" departPos="5.10" departSpeed="0.00" departDelay="0.36" arrival="28.00" arrivalLane="43_3way_60to3way_61_0" arrivalPos="85.60" arrivalSpeed="14.35" duration="16.00" routeLength="180.50" waitingTime="0.00" waitingCount="0" stopTime="0.00" timeLoss="3.17" rerouteNo="0" devices="tripinfo_97" vType="DEFAULT_VEHTYPE" speedFactor="1.06" vaporized=""/>
    <tripinfo id="132" depart="18.00" departLane="39_4way_50to3way_58_0" departPos="5.10" departSpeed="0.00" departDelay="2.16" arrival="28.00" arrivalLane="39_4way_50to3way_58_0" arrivalPos="85.60" arrivalSpeed="11.71" duration="10.00" routeLength="80.50" waitingTime="0.00" waitingCount="0" stopTime="0.00" timeLoss="2.84" rerouteNo="0" devices="tripinfo_132" vType="DEFAULT_VEHTYPE" speedFactor="0.86" vaporized=""/>
    <tripinfo id="17" depart="3.00" departLane="53_4way_19to4way_11_0" departPos="5.10" departSpeed="0.00" departDelay="0.96" arrival="29.00" arrivalLane="10_3way_3to3way_2_0" arrivalPos="85.60" arrivalSpeed="13.37" duration="26.00" routeLength="275.13" waitingTime="0.00" waitingCount="0" stopTime="0.00" timeLoss="6.39" rerouteNo="0" devices="tripinfo_17" vType="DEFAULT_VEHTYPE" speedFactor="1.04" vaporized=""/>
    <tripinfo id="67" depart="9.00" departLane="84_4way_35to4way_34_0" departPos="5.10" departSpeed="0.00" departDelay="0.96" arrival="29.00" arrivalLane="85_4way_34to4way_42_0" arrivalPos="85.60" arrivalSpeed="12.20" duration="20.00" routeLength="175.13" waitingTime="0.00" waitingCount="0" stopTime="0.00" timeLoss="4.42" rerouteNo="0" devices="tripinfo_67" vType="DEFAULT_VEHTYPE" speedFactor="0.88" vaporized=""/>
    <tripinfo id="162" depart="20.00" departLane="98_4way_51to4way_43_0" departPos="5.10" departSpeed="0.00" departDelay="0.56" arrival="29.00" arrivalLane="98_4way_51to4way_43_0" arrivalPos="85.60" arrivalSpeed="12.89" duration="9.00" routeLength="80.50" waitingTime="0.00" waitingCount="0" stopTime="0.00" timeLoss="2.86" rerouteNo="0" devices="tripinfo_162" vType="DEFAULT_VEHTYPE" speedFactor="0.96" vaporized=""/>
    <tripinfo id="23" depart="3.00" departLane="14_3way_24to3way_32_0" departPos="5.10" departSpeed="0.00" departDelay="0.24" arrival="30.00" arrivalLane="26_3way_40to3way_48_0" arrivalPos="85.60" arrivalSpeed="10.96" duration="27.00" routeLength="280.50" waitingTime="0.00" waitingCount="0" stopTime="0.00" timeLoss="3.62" rerouteNo="0" devices="tripinfo_23" vType="DEFAULT_VEHTYPE" speedFactor="0.87" vaporized=""/>
    <tripinfo id="167" depart="21.00" departLane="39_3way_58to4way_50_0" departPos="5.10" departSpeed="0.00" departDelay="0.96" arrival="32.00" arrivalLane="39_3way_58to4way_50_0" arrivalPos="85.60" arrivalSpeed="11.07" duration="11.00" routeLength="80.50" waitingTime="0.00" waitingCount="0" stopTime="0.00" timeLoss="3.33" rerouteNo="0" devices="tripinfo_167" vType="DEFAULT_VEHTYPE" speedFactor="0.85" vaporized=""/>
    <tripinfo id="207" depart="25.00" departLane="103_4way_54to4way_46_0" departPos="5.10" departSpeed="0.00" departDelay="0.16" arrival="34.00" arrivalLane="103_4way_54to4way_46_0" arrivalPos="85.60" arrivalSpeed="16.88" duration="9.00" routeLength="80.50" waitingTime="0.00" waitingCount="0" stopTime="0.00" timeLoss="4.15" rerouteNo="0" devices="tripinfo_207" vType="DEFAULT_VEHTYPE" speedFactor="1.24" vaporized=""/>
    <tripinfo id="44" depart="6.00" departLane="95_4way_43to4way_42_0" departPos="5.10" departSpeed="0.00" departDelay="0.72" arrival="36.00" arrivalLane="27_4way_41to3way_40_0" arrivalPos="85.60" arrivalSpeed="10.41" duration="30.00" routeLength="280.50" waitingTime="0.00" waitingCount="0" stopTime="0.00" timeLoss="3.87" rerouteNo="0" devices="tripinfo_44" vType="DEFAULT_VEHTYPE" speedFactor="0.78" vaporized=""/>
    <tripinfo id="99" depart="14.00" departLane="105_4way_51to4way_50_0" departPos="5.10" departSpeed="0.00" departDelay="2.12" arrival="39.00" arrivalLane="31_4way_49to3way_48_0" arrivalPos="85.60" arrivalSpeed="12.56" duration="25.00" routeLength="280.50" waitingTime="0.00" waitingCount="0" stopTime="0.00" timeLoss="4.02" rerouteNo="0" devices="tripinfo_99" vType="DEFAULT_VEHTYPE" speedFactor="0.97" vaporized=""/>
    <tripinfo id="110" depart="14.00" departLane="106_4way_52to4way_51_0" departPos="5.10" departSpeed="0.00" departDelay="0.80" arrival="40.00" arrivalLane="39_4way_50to3way_58_0" arrivalPos="85.60" arrivalSpeed="13.95" duration="26.00" routeLength="275.13" waitingTime="0.00" waitingCount="0" stopTime="0.00" timeLoss="5.82" rerouteNo="0" devices="tripinfo_110" vType="DEFAULT_VEHTYPE" speedFactor="1.05" vaporized=""/>
    <tripinfo id="179" depart="22.00" departLane="82_4way_33to4way_34_0" departPos="5.10" departSpeed="0.00" departDelay="0.52" arrival="42.00" arrivalLane="74_4way_34to4way_26_0" arrivalPos="85.60" arrivalSpeed="13.43" duration="20.00" routeLength="175.13" waitingTime="0.00" waitingCount="0" stopTime="0.00" timeLoss="5.18" rerouteNo="0" devices="tripinfo_179" vType="DEFAULT_VEHTYPE" speedFactor="0.97" vaporized=""/>
    <tripinfo id="184" depart="23.00" departLane="76_4way_27to4way_35_0" departPos="5.10" departSpeed="0.00" departDelay="0.92" arrival="42.00" arrivalLane="86_4way_35to4way_36_0" arrivalPos="85.60" arrivalSpeed="13.16" duration="19.00" routeLength="175.13" waitingTime="0.00" waitingCount="0" stopTime="0.00" timeLoss="5.51" rerouteNo="0" devices="tripinfo_184" vType="DEFAULT_VEHTYPE" speedFactor="1.02" vaporized=""/>
    <tripinfo id="190" depart="23.00" departLane="56_4way_14to4way_13_0" departPos="5.10" departSpeed="0.00" departDelay="0.20" arrival="42.00" arrivalLane="57_4way_13to4way_21_0" arrivalPos="85.60" arrivalSpeed="14.71" duration="19.00" routeLength="175.13" waitingTime="0.00" waitingCount="0" stopTime="0.00" timeLoss="5.78" rerouteNo="0" devices="tripinfo_190" vType="DEFAULT_VEHTYPE" speedFactor="1.08" vaporized=""/>
    <tripinfo id="202" depart="25.00" departLane="61_4way_17to4way_9_0" departPos="5.10" departSpeed="0.00" departDelay="0.76" arrival="43.00" arrivalLane="3_4way_9to3way_1_0" arrivalPos="85.60" arrivalSpeed="12.11" duration="18.00" routeLength="180.50" waitingTime="0.00" waitingCount="0" stopTime="0.00" timeLoss="3.40" rerouteNo="0" devices="tripinfo_202" vType="DEFAULT_VEHTYPE" speedFactor="0.90" vaporized=""/>
    <tripinfo id="242" depart="34.00" departLane="39_4way_50to3way_58_0" departPos="5.10" departSpeed="0.00" departDelay="4.96" arrival="44.00" arrivalLane="39_4way_50to3way_58_0" arrivalPos="85.60" arrivalSpeed="13.17" duration="10.00" routeLength="80.50" waitingTime="0.00" waitingCount="0" stopTime="0.00" timeLoss="3.80" rerouteNo="0" devices="tripinfo_242" vType="DEFAULT_VEHTYPE" speedFactor="0.98" vaporized=""/>
    <tripinfo id="157" depart="19.00" departLane="74_4way_34to4way_26_0" departPos="5.10" departSpeed="0.00" departDelay="0.16" arrival="47.00" arrivalLane="59_4way_18to4way_17_0" arrivalPos="85.60" arrivalSpeed="11.73" duration="28.00" routeLength="275.13" waitingTime="0.00" waitingCount="0" stopTime="0.00" timeLoss="6.36" rerouteNo="0" devices="tripinfo_157" vType="DEFAULT_VEHTYPE" speedFactor="0.94" vaporized=""/>
    <tripinfo id="39" depart="5.00" departLane="48_4way_9to3way_8_0" departPos="5.10" departSpeed="0.00" departDelay="0.32" arrival="48.00" arrivalLane="20_3way_32to3way_40_0" arrivalPos="85.60" arrivalSpeed="11.62" duration="43.00" routeLength="475.13" waitingTime="0.00" waitingCount="0" stopTime="0.00" timeLoss="9.80" rerouteNo="0" devices="tripinfo_39" vType="DEFAULT_VEHTYPE" speedFactor="1.05" vaporized=""/>
    <tripinfo id="302" depart="37.00" departLane="21_3way_32to4way_33_0" departPos="5.10" departSpeed="0.00" departDelay="0.76" arrival="48.00" arrivalLane="21_3way_32to4way_33_0" arrivalPos="85.60" arrivalSpeed="10.91" duration="11.00" routeLength="80.50" waitingTime="0.00" waitingCount="0" stopTime="0.00" timeLoss="3.13" rerouteNo="0" devices="tripinfo_302" vType="DEFAULT_VEHTYPE" speedFactor="0.83" vaporized=""/>
    <tripinfo id="107" depart="18.00" departLane="8_3way_8to3way_16_0" departPos="5.10" departSpeed="0.00" departDelay="5.16" arrival="50.00" arrivalLane="20_3way_32to3way_40_0" arrivalPos="85.60" arrivalSpeed="13.58" duration="32.00" routeLength="380.50" waitingTime="0.00" waitingCount="0" stopTime="0.00" timeLoss="6.80" rerouteNo="0" devices="tripinfo_107" vType="DEFAULT_VEHTYPE" speedFactor="1.10" vaporized=""/>
    <tripinfo id="265" depart="32.00" departLane="98_4way_51to4way_43_0" departPos="5.10" departSpeed="0.00" departDelay="0.20" arrival="51.00" arrivalLane="95_4way_43to4way_42_0" arrivalPos="85.60" arrivalSpeed="13.54" duration="19.00" routeLength="175.13" waitingTime="0.00" waitingCount="0" stopTime="0.00" timeLoss="5.13" rerouteNo="0" devices="tripinfo_265" vType="DEFAULT_VEHTYPE" speedFactor="0.99" vaporized=""/>
    <tripinfo id="313" depart="41.00" departLane="59_4way_18to4way_17_0" departPos="5.10" departSpeed="0.00" departDelay="3.44" arrival="51.00" arrivalLane="59_4way_18to4way_17_0" arrivalPos="85.60" arrivalSpeed="11.94" duration="10.00" routeLength="80.50" waitingTime="0.00" waitingCount="0" stopTime="0.00" timeLoss="3.40" rerouteNo="0" devices="tripinfo_313" vType="DEFAULT_VEHTYPE" speedFactor="0.90" vaporized=""/>
    <tripinfo id="164" depart="21.00" departLane="107_4way_52to4way_53_0" departPos="5.10" departSpeed="0.00" departDelay="1.32" arrival="52.00" arrivalLane="28_3way_55to3way_47_0" arrivalPos="85.60" arrivalSpeed="14.88" duration="31.00" routeLength="375.13" waitingTime="0.00" waitingCount="0" stopTime="0.00" timeLoss="5.65" rerouteNo="0" devices="tripinfo_164" vType="DEFAULT_VEHTYPE" speedFactor="1.11" vaporized=""/>
    <tripinfo id="273" depart="33.00" departLane="59_4way_18to4way_17_0" departPos="5.10" departSpeed="0.00" departDelay="0.24" arrival="52.00" arrivalLane="60_4way_17to4way_25_0" arrivalPos="85.60" arrivalSpeed="13.69" duration="19.00" routeLength="175.13" waitingTime="0.00" waitingCount="0" stopTime="0.00" timeLoss="5.49" rerouteNo="0" devices="tripinfo_273" vType="DEFAULT_VEHTYPE" speedFactor="1.04" vaporized=""/>
    <tripinfo id="355" depart="44.00" departLane="59_4way_18to4way_17_0" departPos="5.10" departSpeed="0.00" departDelay="1.40" arrival="54.00" arrivalLane="59_4way_18to4way_17_0" arrivalPos="85.60" arrivalSpeed="13.67" duration="10.00" routeLength="80.50" waitingTime="0.00" waitingCount="0" stopTime="0.00" timeLoss="3.63" rerouteNo="0" devices="tripinfo_355" vType="DEFAULT_VEHTYPE" speedFactor="1.00" vaporized=""/>
    <tripinfo id="137" depart="17.00" departLane="107_4way_52to4way_53_0" departPos="5.10" departSpeed="0.00" departDelay="0.56" arrival="56.00" arrivalLane="81_4way_38to4way_30_0" arrivalPos="85.60" arrivalSpeed="14.34" duration="39.00" routeLength="475.13" waitingTime="0.00" waitingCount="0" stopTime="0.00" timeLoss="8.04" rerouteNo="0" devices="tripinfo_137" vType="DEFAULT_VEHTYPE" speedFactor="1.14" vaporized=""/>
    <tripinfo id="289" depart="37.00" departLane="44_3way_60to4way_52_0" departPos="5.10" departSpeed="0.00" departDelay="2.32" arrival="56.00" arrivalLane="106_4way_52to4way_51_0" arrivalPos="85.60" arrivalSpeed="13.46" duration="19.00" routeLength="175.13" waitingTime="0.00" waitingCount="0" stopTime="0.00" timeLoss="5.65" rerouteNo="0" devices="tripinfo_289" vType="DEFAULT_VEHTYPE" speedFactor="1.03" vaporized=""/>
    <tripinfo id="309" depart="38.00" departLane="108_4way_53to4way_54_0" departPos="5.10" departSpeed="0.00" departDelay="0.92" arrival="56.00" arrivalLane="103_4way_54to4way_46_0" arrivalPos="85.60" arrivalSpeed="14.57" duration="18.00" routeLength="175.13" waitingTime="0.00" waitingCount="0" stopTime="0.00" timeLoss="5.60" rerouteNo="0" devices="tripinfo_309" vType="DEFAULT_VEHTYPE" speedFactor="1.12" vaporized=""/>
    <tripinfo id="322" depart="39.00" departLane="93_4way_42to4way_41_0" departPos="5.10" departSpeed="0.00" departDelay="0.36" arrival="57.00" arrivalLane="94_4way_41to4way_49_0" arrivalPos="85.60" arrivalSpeed="14.43" duration="18.00" routeLength="175.13" waitingTime="0.00" waitingCount="0" stopTime="0.00" timeLoss="5.51" rerouteNo="0" devices="tripinfo_322" vType="DEFAULT_VEHTYPE" speedFactor="1.08" vaporized=""/>
    <tripinfo id="388" depart="47.00" departLane="69_4way_21to4way_29_0" departPos="5.10" departSpeed="0.00" departDelay="0.44" arrival="57.00" arrivalLane="69_4way_21to4way_29_0" arrivalPos="85.60" arrivalSpeed="12.46" duration="10.00" routeLength="80.50" waitingTime="0.00" waitingCount="0" stopTime="0.00" timeLoss="3.62" rerouteNo="0" devices="tripinfo_388" vType="DEFAULT_VEHTYPE" speedFactor="0.95" vaporized=""/>
    <tripinfo id="183" depart="24.00" departLane="26_3way_40to3way_48_0" departPos="5.10" departSpeed="0.00" departDelay="2.04" arrival="59.00" arrivalLane="105_4way_50to4way_51_0" arrivalPos="85.60" arrivalSpeed="13.02" duration="35.00" routeLength="375.13" waitingTime="0.00" waitingCount="0" stopTime="0.00" timeLoss="5.68" rerouteNo="0" devices="tripinfo_183" vType="DEFAULT_VEHTYPE" speedFactor="0.96" vaporized=""/>
    <tripinfo id="332" depart="40.00" departLane="61_4way_17to4way_9_0" departPos="5.10" departSpeed="0.00" departDelay="0.16" arrival="61.00" arrivalLane="48_4way_9to3way_8_0" arrivalPos="85.60" arrivalSpeed="11.53" duration="21.00" routeLength="175.13" waitingTime="0.00" waitingCount="0" stopTime="0.00" timeLoss="4.84" rerouteNo="0" devices="tripinfo_332" vType="DEFAULT_VEHTYPE" speedFactor="0.83" vaporized=""/>
    <tripinfo id="399" depart="51.00" departLane="54_4way_12to4way_13_0" departPos="5.10" departSpeed="0.00" departDelay="3.12" arrival="61.00" arrivalLane="54_4way_12to4way_13_0" arrivalPos="85.60" arrivalSpeed="13.41" duration="10.00" routeLength="80.50" waitingTime="0.00" waitingCount="0" stopTime="0.00" timeLoss="4.09" rerouteNo="0" devices="tripinfo_399" vType="DEFAULT_VEHTYPE" speedFactor="0.99" vaporized=""/>
    <tripinfo id="221" depart="27.00" departLane="58_4way_14to4way_22_0" departPos="5.10" departSpeed="0.00" departDelay="0.48" arrival="62.00" arrivalLane="92_4way_38to4way_46_0" arrivalPos="85.60" arrivalSpeed="11.96" duration="35.00" routeLength="380.50" waitingTime="0.00" waitingCount="0" stopTime="0.00" timeLoss="4.26" rerouteNo="0" devices="tripinfo_221" vType="DEFAULT_VEHTYPE" speedFactor="0.90" vaporized=""/>
    <tripinfo id="446" depart="54.00" departLane="61_4way_17to4way_9_0" departPos="5.10" departSpeed="0.00" departDelay="0.48" arrival="63.00" arrivalLane="61_4way_17to4way_9_0" arrivalPos="85.60" arrivalSpeed="14.85" duration="9.00" routeLength="80.50" waitingTime="0.00" waitingCount="0" stopTime="0.00" timeLoss="3.39" rerouteNo="0" devices="tripinfo_446" vType="DEFAULT_VEHTYPE" speedFactor="1.07" vaporized=""/>
    <tripinfo id="378" depart="46.00" departLane="21_3way_32to4way_33_0" departPos="5.10" departSpeed="0.00" departDelay="0.64" arrival="64.00" arrivalLane="72_4way_33to4way_25_0" arrivalPos="85.60" arrivalSpeed="13.29" duration="18.00" routeLength="175.13" waitingTime="0.00" waitingCount="0" stopTime="0.00" timeLoss="5.08" rerouteNo="0" devices="tripinfo_378" vType="DEFAULT_VEHTYPE" speedFactor="1.03" vaporized=""/>
    <tripinfo id="186" depart="27.00" departLane="90_4way_38to4way_37_0" departPos="5.10" departSpeed="0.00" departDelay="4.68" arrival="65.00" arrivalLane="100_4way_44to4way_52_0" arrivalPos="85.60" arrivalSpeed="10.87" duration="38.00" routeLength="375.13" waitingTime="0.00" waitingCount="0" stopTime="0.00" timeLoss="6.08" rerouteNo="0" devices="tripinfo_186" vType="DEFAULT_VEHTYPE" speedFactor="0.87" vaporized=""/>
    <tripinfo id="314" depart="38.00" departLane="90_4way_38to4way_37_0" departPos="5.10" departSpeed="0.00" departDelay="0.32" arrival="65.00" arrivalLane="89_4way_36to4way_44_0" arrivalPos="85.60" arrivalSpeed="12.00" duration="27.00" routeLength="275.13" waitingTime="0.00" waitingCount="0" stopTime="0.00" timeLoss="5.35" rerouteNo="0" devices="tripinfo_314" vType="DEFAULT_VEHTYPE" speedFactor="0.95" vaporized=""/>
    <tripinfo id="331" depart="40.00" departLane="75_4way_27to4way_28_0" departPos="5.10" departSpeed="0.00" departDelay="0.28" arrival="68.00" arrivalLane="55_4way_20to4way_12_0" arrivalPos="85.60" arrivalSpeed="11.80" duration="28.00" routeLength="275.13" waitingTime="0.00" waitingCount="0" stopTime="0.00" timeLoss="5.79" rerouteNo="0" devices="tripinfo_331" vType="DEFAULT_VEHTYPE" speedFactor="0.94" vaporized=""/>
    <tripinfo id="398" depart="50.00" departLane="9_3way_16to4way_17_0" departPos="5.10" departSpeed="0.00" departDelay="2.24" arrival="68.00" arrivalLane="61_4way_17to4way_9_0" arrivalPos="85.60" arrivalSpeed="14.18" duration="18.00" routeLength="175.13" waitingTime="0.00" waitingCount="0" stopTime="0.00" timeLoss="5.27" rerouteNo="0" devices="tripinfo_398" vType="DEFAULT_VEHTYPE" speedFactor="1.06" vaporized=""/>
    <tripinfo id="432" depart="52.00" departLane="35_3way_55to4way_54_0" departPos="5.10" departSpeed="0.00" departDelay="0.16" arrival="68.00" arrivalLane="108_4way_54to4way_53_0" arrivalPos="85.60" arrivalSpeed="14.86" duration="16.00" routeLength="180.50" waitingTime="0.00" waitingCount="0" stopTime="0.00" timeLoss="4.17" rerouteNo="0" devices="tripinfo_432" vType="DEFAULT_VEHTYPE" speedFactor="1.10" vaporized=""/>
    <tripinfo id="401" depart="49.00" departLane="100_4way_44to4way_52_0" departPos="5.10" departSpeed="0.00" departDelay="0.88" arrival="69.00" arrivalLane="107_4way_52to4way_53_0" arrivalPos="85.60" arrivalSpeed="11.56" duration="20.00" routeLength="175.13" waitingTime="0.00" waitingCount="0" stopTime="0.00" timeLoss="5.04" rerouteNo="0" devices="tripinfo_401" vType="DEFAULT_VEHTYPE" speedFactor="0.93" vaporized=""/>
    <tripinfo id="479" depart="60.00" departLane="26_3way_48to3way_40_0" departPos="5.10" departSpeed="0.00" departDelay="2.52" arrival="69.00" arrivalLane="26_3way_48to3way_40_0" arrivalPos="85.60" arrivalSpeed="14.18" duration="9.00" routeLength="80.50" waitingTime="0.00" waitingCount="0" stopTime="0.00" timeLoss="3.37" rerouteNo="0" devices="tripinfo_479" vType="DEFAULT_VEHTYPE" speedFactor="1.04" vaporized=""/>
    <tripinfo id="484" depart="59.00" departLane="35_3way_55to4way_54_0" departPos="5.10" departSpeed="0.00" departDelay="0.92" arrival="69.00" arrivalLane="35_3way_55to4way_54_0" arrivalPos="85.60" arrivalSpeed="10.94" duration="10.00" routeLength="80.50" waitingTime="0.00" waitingCount="0" stopTime="0.00" timeLoss="2.69" rerouteNo="0" devices="tripinfo_484" vType="DEFAULT_VEHTYPE" speedFactor="0.84" vaporized=""/>
    <tripinfo id="52" depart="10.00" departLane="96_4way_42to4way_50_0" departPos="5.10" departSpeed="0.00" departDelay="3.76" arrival="70.00" arrivalLane="96_4way_42to4way_50_0" arrivalPos="85.60" arrivalSpeed="5.63" duration="60.00" routeLength="80.50" waitingTime="46.00" waitingCount="1" stopTime="0.00" timeLoss="54.27" rerouteNo="0" devices="tripinfo_52" vType="DEFAULT_VEHTYPE" speedFactor="1.03" vaporized=""/>
    <tripinfo id="60" depart="8.00" departLane="76_4way_27to4way_35_0" departPos="5.10" departSpeed="0.00" departDelay="0.80" arrival="70.00" arrivalLane="90_4way_37to4way_38_0" arrivalPos="85.60" arrivalSpeed="5.14" duration="62.00" routeLength="375.13" waitingTime="26.00" waitingCount="1" stopTime="0.00" timeLoss="37.36" rerouteNo="0" devices="tripinfo_60" vType="DEFAULT_VEHTYPE" speedFactor="1.12" vaporized=""/>
    <tripinfo id="131" depart="16.00" departLane="100_4way_52to4way_44_0" departPos="5.10" departSpeed="0.00" departDelay="0.28" arrival="70.00" arrivalLane="97_4way_44to4way_43_0" arrivalPos="85.60" arrivalSpeed="5.04" duration="54.00" routeLength="175.13" waitingTime="28.00" waitingCount="1" stopTime="0.00" timeLoss="38.03" rerouteNo="0" devices="tripinfo_131" vType="DEFAULT_VEHTYPE" speedFactor="0.82" vaporized=""/>
    <tripinfo id="247" depart="35.00" departLane="7_3way_16to3way_24_0" departPos="5.10" departSpeed="0.00" departDelay="5.36" arrival="70.00" arrivalLane="26_3way_40to3way_48_0" arrivalPos="85.60" arrivalSpeed="12.52" duration="35.00" routeLength="380.50" waitingTime="0.00" waitingCount="0" stopTime="0.00" timeLoss="9.20" rerouteNo="0" devices="tripinfo_247" vType="DEFAULT_VEHTYPE" speedFactor="1.07" vaporized=""/>
    <tripinfo id="281" depart="34.00" departLane="92_4way_46to4way_38_0" departPos="5.10" departSpeed="0.00" departDelay="0.28" arrival="70.00" arrivalLane="68_4way_22to4way_21_0" arrivalPos="85.60" arrivalSpeed="12.14" duration="36.00" routeLength="375.13" waitingTime="0.00" waitingCount="0" stopTime="0.00" timeLoss="5.97" rerouteNo="0" devices="tripinfo_281" vType="DEFAULT_VEHTYPE" speedFactor="0.95" vaporized=""/>
    <tripinfo id="315" depart="38.00" departLane="4_3way_15to3way_23_0" departPos="5.10" departSpeed="0.00" departDelay="0.20" arrival="70.00" arrivalLane="4_3way_15to3way_23_0" arrivalPos="85.60" arrivalSpeed="4.93" duration="32.00" routeLength="80.50" waitingTime="18.00" waitingCount="1" stopTime="0.00" timeLoss="25.71" rerouteNo="0" devices="tripinfo_315" vType="DEFAULT_VEHTYPE" speedFactor="0.93" vaporized=""/>
    <tripinfo id="81" depart="10.00" departLane="91_4way_37to4way_45_0" departPos="5.10" departSpeed="0.00" departDelay="0.28" arrival="71.00" arrivalLane="101_4way_45to4way_46_0" arrivalPos="85.60" arrivalSpeed="6.42" duration="61.00" routeLength="175.13" waitingTime="36.00" waitingCount="1" stopTime="0.00" timeLoss="48.07" rerouteNo="0" devices="tripinfo_81" vType="DEFAULT_VEHTYPE" speedFactor="1.05" vaporized=""/>
    <tripinfo id="329" depart="40.00" departLane="48_3way_8to4way_9_0" departPos="5.10" departSpeed="0.00" departDelay="0.52" arrival="71.00" arrivalLane="48_3way_8to4way_9_0" arrivalPos="85.60" arrivalSpeed="6.53" duration="31.00" routeLength="80.50" waitingTime="17.00" waitingCount="1" stopTime="0.00" timeLoss="25.23" rerouteNo="0" devices="tripinfo_329" vType="DEFAULT_VEHTYPE" speedFactor="1.07" vaporized=""/>
    <tripinfo id="455" depart="55.00" departLane="14_3way_32to3way_24_0" departPos="5.10" departSpeed="0.00" departDelay="0.40" arrival="71.00" arrivalLane="7_3way_24to3way_16_0" arrivalPos="85.60" arrivalSpeed="14.87" duration="16.00" routeLength="180.50" waitingTime="0.00" waitingCount="0" stopTime="0.00" timeLoss="3.69" rerouteNo="0" devices="tripinfo_455" vType="DEFAULT_VEHTYPE" speedFactor="1.08" vaporized=""/>
    <tripinfo id="59" depart="8.00" departLane="50_4way_10to4way_18_0" departPos="5.10" departSpeed="0.00" departDelay="0.92" arrival="73.00" arrivalLane="64_4way_19to4way_20_0" arrivalPos="85.60" arrivalSpeed="8.85" duration="65.00" routeLength="275.13" waitingTime="31.00" waitingCount="1" stopTime="0.00" timeLoss="44.87" rerouteNo="0" devices="tripinfo_59" vType="DEFAULT_VEHTYPE" speedFactor="1.03" vaporized=""/>
    <tripinfo id="134" depart="23.00" departLane="101_4way_45to4way_46_0" departPos="5.10" departSpeed="0.00" departDelay="6.92" arrival="73.00" arrivalLane="101_4way_45to4way_46_0" arrivalPos="85.60" arrivalSpeed="8.13" duration="50.00" routeLength="80.50" waitingTime="35.00" waitingCount="1" stopTime="0.00" timeLoss="43.83" rerouteNo="0" devices="tripinfo_134" vType="DEFAULT_VEHTYPE" speedFactor="1.00" vaporized=""/>