<?xml version="1.0" encoding="UTF-8"?>

<!-- generated on 2023-07-29 04:32:38 by Eclipse SUMO sumo Version 1.12.0
<configuration xmlns:xsi="http://www.w3.org/2001/XMLSchema-instance" xsi:noNamespaceSchemaLocation="http://sumo.dlr.de/xsd/sumoConfiguration.xsd">

    <input>
        <net-file value="../../data_generation/sq.net.xml"/>
        <route-files value="../../data_generation/sq.rou.xml"/>
    </input>

    <output>
        <tripinfo-output value="tripinfo.xml"/>
        <statistic-output value="statistic.xml"/>
    </output>

    <time>
        <begin value="0"/>
        <end value="3600"/>
    </time>

    <processing>
        <time-to-teleport value="-1"/>
    </processing>

    <traci_server>
        <remote-port value="37897"/>
    </traci_server>

    <random_number>
        <seed value="1395"/>
    </random_number>

    <gui_only>
        <gui-settings-file value="../../data_generation/view_HY_0402.xml"/>
    </gui_only>

</configuration>
-->

<tripinfos xmlns:xsi="http://www.w3.org/2001/XMLSchema-instance" xsi:noNamespaceSchemaLocation="http://sumo.dlr.de/xsd/tripinfo_file.xsd">
    <tripinfo id="7" depart="3.00" departLane="32_3way_6to3way_5_0" departPos="5.10" departSpeed="0.00" departDelay="0.67" arrival="12.00" arrivalLane="32_3way_6to3way_5_0" arrivalPos="85.60" arrivalSpeed="12.87" duration="9.00" routeLength="80.50" waitingTime="0.00" waitingCount="0" stopTime="0.00" timeLoss="2.79" rerouteNo="0" devices="tripinfo_7" vType="DEFAULT_VEHTYPE" speedFactor="0.95" vaporized=""/>
    <tripinfo id="9" depart="3.00" departLane="99_4way_45to4way_44_0" departPos="5.10" departSpeed="0.00" departDelay="0.00" arrival="13.00" arrivalLane="99_4way_45to4way_44_0" arrivalPos="85.60" arrivalSpeed="11.98" duration="10.00" routeLength="80.50" waitingTime="0.00" waitingCount="0" stopTime="0.00" timeLoss="3.09" rerouteNo="0" devices="tripinfo_9" vType="DEFAULT_VEHTYPE" speedFactor="0.91" vaporized=""/>
    <tripinfo id="13" depart="5.00" departLane="19_4way_30to3way_31_0" departPos="5.10" departSpeed="0.00" departDelay="0.67" arrival="14.00" arrivalLane="19_4way_30to3way_31_0" arrivalPos="85.60" arrivalSpeed="13.53" duration="9.00" routeLength="80.50" waitingTime="0.00" waitingCount="0" stopTime="0.00" timeLoss="2.82" rerouteNo="0" devices="tripinfo_13" vType="DEFAULT_VEHTYPE" speedFactor="0.98" vaporized=""/>
    <tripinfo id="20" depart="7.00" departLane="15_4way_25to3way_24_0" departPos="5.10" departSpeed="0.00" departDelay="0.33" arrival="16.00" arrivalLane="15_4way_25to3way_24_0" arrivalPos="85.60" arrivalSpeed="11.79" duration="9.00" routeLength="80.50" waitingTime="0.00" waitingCount="0" stopTime="0.00" timeLoss="2.34" rerouteNo="0" devices="tripinfo_20" vType="DEFAULT_VEHTYPE" speedFactor="0.89" vaporized=""/>
    <tripinfo id="14" depart="5.00" departLane="61_4way_9to4way_17_0" departPos="5.10" departSpeed="0.00" departDelay="0.33" arrival="24.00" arrivalLane="59_4way_17to4way_18_0" arrivalPos="85.60" arrivalSpeed="12.21" duration="19.00" routeLength="175.13" waitingTime="0.00" waitingCount="0" stopTime="0.00" timeLoss="4.79" rerouteNo="0" devices="tripinfo_14" vType="DEFAULT_VEHTYPE" speedFactor="0.95" vaporized=""/>
    <tripinfo id="16" depart="6.00" departLane="85_4way_42to4way_34_0" departPos="5.10" departSpeed="0.00" departDelay="0.67" arrival="27.00" arrivalLane="82_4way_34to4way_33_0" arrivalPos="85.60" arrivalSpeed="12.04" duration="21.00" routeLength="175.13" waitingTime="0.00" waitingCount="0" stopTime="0.00" timeLoss="5.47" rerouteNo="0" devices="tripinfo_16" vType="DEFAULT_VEHTYPE" speedFactor="0.90" vaporized=""/>
    <tripinfo id="52" depart="20.00" departLane="96_4way_42to4way_50_0" departPos="5.10" departSpeed="0.00" departDelay="2.67" arrival="30.00" arrivalLane="96_4way_42to4way_50_0" arrivalPos="85.60" arrivalSpeed="13.55" duration="10.00" routeLength="80.50" waitingTime="0.00" waitingCount="0" stopTime="0.00" timeLoss="3.74" rerouteNo="0" devices="tripinfo_52" vType="DEFAULT_VEHTYPE" speedFactor="1.03" vaporized=""/>
    <tripinfo id="66" depart="22.00" departLane="96_4way_50to4way_42_0" departPos="5.10" departSpeed="0.00" departDelay="0.00" arrival="32.00" arrivalLane="96_4way_50to4way_42_0" arrivalPos="85.60" arrivalSpeed="11.01" duration="10.00" routeLength="80.50" waitingTime="0.00" waitingCount="0" stopTime="0.00" timeLoss="3.04" rerouteNo="0" devices="tripinfo_66" vType="DEFAULT_VEHTYPE" speedFactor="0.86" vaporized=""/>
    <tripinfo id="27" depart="9.00" departLane="41_3way_59to4way_51_0" departPos="5.10" departSpeed="0.00" departDelay="0.00" arrival="33.00" arrivalLane="87_4way_43to4way_35_0" arrivalPos="85.60" arrivalSpeed="14.21" duration="24.00" routeLength="280.50" waitingTime="0.00" waitingCount="0" stopTime="0.00" timeLoss="4.05" rerouteNo="0" devices="tripinfo_27" vType="DEFAULT_VEHTYPE" speedFactor="1.03" vaporized=""/>
    <tripinfo id="23" depart="8.00" departLane="14_3way_24to3way_32_0" departPos="5.10" departSpeed="0.00" departDelay="0.33" arrival="35.00" arrivalLane="26_3way_40to3way_48_0" arrivalPos="85.60" arrivalSpeed="11.52" duration="27.00" routeLength="280.50" waitingTime="0.00" waitingCount="0" stopTime="0.00" timeLoss="3.48" rerouteNo="0" devices="tripinfo_23" vType="DEFAULT_VEHTYPE" speedFactor="0.87" vaporized=""/>
    <tripinfo id="29" depart="10.00" departLane="4_3way_15to3way_23_0" departPos="5.10" departSpeed="0.00" departDelay="0.33" arrival="36.00" arrivalLane="18_3way_31to3way_39_0" arrivalPos="85.60" arrivalSpeed="12.75" duration="26.00" routeLength="280.50" waitingTime="0.00" waitingCount="0" stopTime="0.00" timeLoss="3.78" rerouteNo="0" devices="tripinfo_29" vType="DEFAULT_VEHTYPE" speedFactor="0.95" vaporized=""/>
    <tripinfo id="32" depart="11.00" departLane="32_3way_6to3way_5_0" departPos="5.10" departSpeed="0.00" departDelay="0.33" arrival="38.00" arrivalLane="57_4way_13to4way_21_0" arrivalPos="85.60" arrivalSpeed="13.17" duration="27.00" routeLength="275.13" waitingTime="0.00" waitingCount="0" stopTime="0.00" timeLoss="5.78" rerouteNo="0" devices="tripinfo_32" vType="DEFAULT_VEHTYPE" speedFactor="1.00" vaporized=""/>
    <tripinfo id="26" depart="9.00" departLane="22_3way_39to3way_47_0" departPos="5.10" departSpeed="0.00" departDelay="0.33" arrival="41.00" arrivalLane="34_3way_55to3way_62_0" arrivalPos="188.80" arrivalSpeed="14.00" duration="32.00" routeLength="383.70" waitingTime="0.00" waitingCount="0" stopTime="0.00" timeLoss="4.52" rerouteNo="0" devices="tripinfo_26" vType="DEFAULT_VEHTYPE" speedFactor="1.03" vaporized=""/>
    <tripinfo id="49" depart="17.00" departLane="38_3way_58to3way_59_0" departPos="5.10" departSpeed="0.00" departDelay="0.67" arrival="42.00" arrivalLane="98_4way_51to4way_43_0" arrivalPos="85.60" arrivalSpeed="14.01" duration="25.00" routeLength="275.13" waitingTime="0.00" waitingCount="0" stopTime="0.00" timeLoss="5.86" rerouteNo="0" devices="tripinfo_49" vType="DEFAULT_VEHTYPE" speedFactor="1.08" vaporized=""/>
    <tripinfo id="55" depart="19.00" departLane="36_3way_57to3way_58_0" departPos="5.10" departSpeed="0.00" departDelay="0.67" arrival="46.00" arrivalLane="41_3way_59to4way_51_0" arrivalPos="85.60" arrivalSpeed="12.77" duration="27.00" routeLength="275.13" waitingTime="0.00" waitingCount="0" stopTime="0.00" timeLoss="5.28" rerouteNo="0" devices="tripinfo_55" vType="DEFAULT_VEHTYPE" speedFactor="0.94" vaporized=""/>
    <tripinfo id="33" depart="14.00" departLane="32_3way_6to3way_5_0" departPos="5.10" departSpeed="0.00" departDelay="3.00" arrival="47.00" arrivalLane="69_4way_21to4way_29_0" arrivalPos="85.60" arrivalSpeed="14.40" duration="33.00" routeLength="375.13" waitingTime="0.00" waitingCount="0" stopTime="0.00" timeLoss="6.90" rerouteNo="0" devices="tripinfo_33" vType="DEFAULT_VEHTYPE" speedFactor="1.06" vaporized=""/>
    <tripinfo id="86" depart="29.00" departLane="46_3way_61to4way_53_0" departPos="5.10" departSpeed="0.00" departDelay="0.34" arrival="47.00" arrivalLane="107_4way_53to4way_52_0" arrivalPos="85.60" arrivalSpeed="13.97" duration="18.00" routeLength="175.13" waitingTime="0.00" waitingCount="0" stopTime="0.00" timeLoss="5.59" rerouteNo="0" devices="tripinfo_86" vType="DEFAULT_VEHTYPE" speedFactor="1.06" vaporized=""/>
    <tripinfo id="97" depart="33.00" departLane="40_3way_59to3way_60_0" departPos="5.10" departSpeed="0.00" departDelay="0.67" arrival="49.00" arrivalLane="43_3way_60to3way_61_0" arrivalPos="85.60" arrivalSpeed="14.55" duration="16.00" routeLength="180.50" waitingTime="0.00" waitingCount="0" stopTime="0.00" timeLoss="3.17" rerouteNo="0" devices="tripinfo_97" vType="DEFAULT_VEHTYPE" speedFactor="1.06" vaporized=""/>
    <tripinfo id="125" depart="42.00" departLane="78_4way_28to4way_36_0" departPos="5.10" departSpeed="0.00" departDelay="0.34" arrival="51.00" arrivalLane="78_4way_28to4way_36_0" arrivalPos="85.60" arrivalSpeed="13.03" duration="9.00" routeLength="80.50" waitingTime="0.00" waitingCount="0" stopTime="0.00" timeLoss="2.88" rerouteNo="0" devices="tripinfo_125" vType="DEFAULT_VEHTYPE" speedFactor="0.95" vaporized=""/>
    <tripinfo id="126" depart="42.00" departLane="42_3way_6to4way_14_0" departPos="5.10" departSpeed="0.00" departDelay="0.00" arrival="51.00" arrivalLane="42_3way_6to4way_14_0" arrivalPos="85.60" arrivalSpeed="13.61" duration="9.00" routeLength="80.50" waitingTime="0.00" waitingCount="0" stopTime="0.00" timeLoss="3.08" rerouteNo="0" devices="tripinfo_126" vType="DEFAULT_VEHTYPE" speedFactor="1.01" vaporized=""/>
    <tripinfo id="92" depart="31.00" departLane="96_4way_50to4way_42_0" departPos="5.10" departSpeed="0.00" departDelay="0.34" arrival="54.00" arrivalLane="74_4way_34to4way_26_0" arrivalPos="85.60" arrivalSpeed="15.49" duration="23.00" routeLength="280.50" waitingTime="0.00" waitingCount="0" stopTime="0.00" timeLoss="4.19" rerouteNo="0" devices="tripinfo_92" vType="DEFAULT_VEHTYPE" speedFactor="1.13" vaporized=""/>
    <tripinfo id="104" depart="35.00" departLane="45_3way_61to3way_62_0" departPos="5.10" departSpeed="0.00" departDelay="0.34" arrival="55.00" arrivalLane="47_3way_62to4way_54_0" arrivalPos="85.60" arrivalSpeed="12.66" duration="20.00" routeLength="175.13" waitingTime="0.00" waitingCount="0" stopTime="0.00" timeLoss="5.18" rerouteNo="0" devices="tripinfo_104" vType="DEFAULT_VEHTYPE" speedFactor="0.95" vaporized=""/>
    <tripinfo id="115" depart="39.00" departLane="11_3way_2to4way_10_0" departPos="5.10" departSpeed="0.00" departDelay="0.67" arrival="57.00" arrivalLane="50_4way_10to4way_18_0" arrivalPos="85.60" arrivalSpeed="12.69" duration="18.00" routeLength="180.50" waitingTime="0.00" waitingCount="0" stopTime="0.00" timeLoss="3.27" rerouteNo="0" devices="tripinfo_115" vType="DEFAULT_VEHTYPE" speedFactor="0.92" vaporized=""/>
    <tripinfo id="88" depart="32.00" departLane="11_3way_2to4way_10_0" departPos="5.10" departSpeed="0.00" departDelay="2.67" arrival="58.00" arrivalLane="52_4way_11to4way_12_0" arrivalPos="85.60" arrivalSpeed="13.70" duration="26.00" routeLength="275.13" waitingTime="0.00" waitingCount="0" stopTime="0.00" timeLoss="6.01" rerouteNo="0" devices="tripinfo_88" vType="DEFAULT_VEHTYPE" speedFactor="1.06" vaporized=""/>
    <tripinfo id="101" depart="34.00" departLane="24_3way_5to3way_4_0" departPos="5.10" departSpeed="0.00" departDelay="0.34" arrival="59.00" arrivalLane="10_3way_3to3way_2_0" arrivalPos="85.60" arrivalSpeed="13.51" duration="25.00" routeLength="280.50" waitingTime="0.00" waitingCount="0" stopTime="0.00" timeLoss="4.51" rerouteNo="0" devices="tripinfo_101" vType="DEFAULT_VEHTYPE" speedFactor="1.03" vaporized=""/>
    <tripinfo id="148" depart="50.00" departLane="92_4way_38to4way_46_0" departPos="5.10" departSpeed="0.00" departDelay="0.67" arrival="59.00" arrivalLane="92_4way_38to4way_46_0" arrivalPos="85.60" arrivalSpeed="14.83" duration="9.00" routeLength="80.50" waitingTime="0.00" waitingCount="0" stopTime="0.00" timeLoss="3.43" rerouteNo="0" devices="tripinfo_148" vType="DEFAULT_VEHTYPE" speedFactor="1.07" vaporized=""/>
    <tripinfo id="82" depart="28.00" departLane="7_3way_24to3way_16_0" departPos="5.10" departSpeed="0.00" departDelay="0.67" arrival="60.00" arrivalLane="2_3way_8to3way_1_0" arrivalPos="188.80" arrivalSpeed="12.89" duration="32.00" routeLength="383.70" waitingTime="0.00" waitingCount="0" stopTime="0.00" timeLoss="3.98" rerouteNo="0" devices="tripinfo_82" vType="DEFAULT_VEHTYPE" speedFactor="0.99" vaporized=""/>
    <tripinfo id="84" depart="28.00" departLane="16_3way_4to3way_3_0" departPos="5.10" departSpeed="0.00" departDelay="0.00" arrival="60.00" arrivalLane="50_4way_10to4way_18_0" arrivalPos="85.60" arrivalSpeed="13.63" duration="32.00" routeLength="375.13" waitingTime="0.00" waitingCount="0" stopTime="0.00" timeLoss="5.83" rerouteNo="0" devices="tripinfo_84" vType="DEFAULT_VEHTYPE" speedFactor="1.06" vaporized=""/>
    <tripinfo id="127" depart="43.00" departLane="96_4way_50to4way_42_0" departPos="5.10" departSpeed="0.00" departDelay="0.67" arrival="60.00" arrivalLane="85_4way_42to4way_34_0" arrivalPos="85.60" arrivalSpeed="12.74" duration="17.00" routeLength="180.50" waitingTime="0.00" waitingCount="0" stopTime="0.00" timeLoss="3.17" rerouteNo="0" devices="tripinfo_127" vType="DEFAULT_VEHTYPE" speedFactor="1.00" vaporized=""/>
    <tripinfo id="114" depart="38.00" departLane="45_3way_62to3way_61_0" departPos="5.10" departSpeed="0.00" departDelay="0.00" arrival="62.00" arrivalLane="40_3way_60to3way_59_0" arrivalPos="85.60" arrivalSpeed="14.60" duration="24.00" routeLength="280.50" waitingTime="0.00" waitingCount="0" stopTime="0.00" timeLoss="4.43" rerouteNo="0" devices="tripinfo_114" vType="DEFAULT_VEHTYPE" speedFactor="1.06" vaporized=""/>
    <tripinfo id="155" depart="52.00" departLane="32_3way_6to3way_5_0" departPos="5.10" departSpeed="0.00" departDelay="0.34" arrival="62.00" arrivalLane="32_3way_6to3way_5_0" arrivalPos="85.60" arrivalSpeed="12.05" duration="10.00" routeLength="80.50" waitingTime="0.00" waitingCount="0" stopTime="0.00" timeLoss="3.18" rerouteNo="0" devices="tripinfo_155" vType="DEFAULT_VEHTYPE" speedFactor="0.94" vaporized=""/>
    <tripinfo id="63" depart="22.00" departLane="36_3way_57to3way_58_0" departPos="5.10" departSpeed="0.00" departDelay="1.00" arrival="66.00" arrivalLane="87_4way_43to4way_35_0" arrivalPos="85.60" arrivalSpeed="12.80" duration="44.00" routeLength="475.13" waitingTime="0.00" waitingCount="0" stopTime="0.00" timeLoss="6.77" rerouteNo="0" devices="tripinfo_63" vType="DEFAULT_VEHTYPE" speedFactor="0.95" vaporized=""/>
    <tripinfo id="107" depart="36.00" departLane="8_3way_8to3way_16_0" departPos="5.10" departSpeed="0.00" departDelay="0.34" arrival="66.00" arrivalLane="20_3way_32to3way_40_0" arrivalPos="85.60" arrivalSpeed="15.00" duration="30.00" routeLength="380.50" waitingTime="0.00" waitingCount="0" stopTime="0.00" timeLoss="4.52" rerouteNo="0" devices="tripinfo_107" vType="DEFAULT_VEHTYPE" speedFactor="1.10" vaporized=""/>
    <tripinfo id="111" depart="37.00" departLane="92_4way_38to4way_46_0" departPos="5.10" departSpeed="0.00" departDelay="0.00" arrival="66.00" arrivalLane="35_4way_54to3way_55_0" arrivalPos="85.60" arrivalSpeed="10.54" duration="29.00" routeLength="275.13" waitingTime="0.00" waitingCount="0" stopTime="0.00" timeLoss="4.96" rerouteNo="0" devices="tripinfo_111" vType="DEFAULT_VEHTYPE" speedFactor="0.84" vaporized=""/>
    <tripinfo id="167" depart="56.00" departLane="39_3way_58to4way_50_0" departPos="5.10" departSpeed="0.00" departDelay="0.34" arrival="66.00" arrivalLane="39_3way_58to4way_50_0" arrivalPos="85.60" arrivalSpeed="11.25" duration="10.00" routeLength="80.50" waitingTime="0.00" waitingCount="0" stopTime="0.00" timeLoss="2.49" rerouteNo="0" devices="tripinfo_167" vType="DEFAULT_VEHTYPE" speedFactor="0.85" vaporized=""/>
    <tripinfo id="78" depart="26.00" departLane="24_3way_5to3way_4_0" departPos="5.10" departSpeed="0.00" departDelay="0.00" arrival="67.00" arrivalLane="3_3way_1to4way_9_0" arrivalPos="85.60" arrivalSpeed="13.34" duration="41.00" routeLength="475.13" waitingTime="0.00" waitingCount="0" stopTime="0.00" timeLoss="6.57" rerouteNo="0" devices="tripinfo_78" vType="DEFAULT_VEHTYPE" speedFactor="1.03" vaporized=""/>
    <tripinfo id="117" depart="39.00" departLane="72_4way_33to4way_25_0" departPos="5.10" departSpeed="0.00" departDelay="0.00" arrival="67.00" arrivalLane="9_4way_17to3way_16_0" arrivalPos="85.60" arrivalSpeed="11.60" duration="28.00" routeLength="275.13" waitingTime="0.00" waitingCount="0" stopTime="0.00" timeLoss="5.24" rerouteNo="0" devices="tripinfo_117" vType="DEFAULT_VEHTYPE" speedFactor="0.91" vaporized=""/>
    <tripinfo id="47" depart="16.00" departLane="11_3way_2to4way_10_0" departPos="5.10" departSpeed="0.00" departDelay="0.33" arrival="68.00" arrivalLane="96_4way_42to4way_50_0" arrivalPos="85.60" arrivalSpeed="11.44" duration="52.00" routeLength="580.50" waitingTime="0.00" waitingCount="0" stopTime="0.00" timeLoss="5.07" rerouteNo="0" devices="tripinfo_47" vType="DEFAULT_VEHTYPE" speedFactor="0.90" vaporized=""/>
    <tripinfo id="18" depart="11.00" departLane="53_4way_19to4way_11_0" departPos="5.10" departSpeed="0.00" departDelay="5.00" arrival="70.00" arrivalLane="53_4way_19to4way_11_0" arrivalPos="85.60" arrivalSpeed="5.99" duration="59.00" routeLength="80.50" waitingTime="45.00" waitingCount="1" stopTime="0.00" timeLoss="52.73" rerouteNo="0" devices="tripinfo_18" vType="DEFAULT_VEHTYPE" speedFactor="0.96" vaporized=""/>
    <tripinfo id="24" depart="8.00" departLane="72_4way_25to4way_33_0" departPos="5.10" departSpeed="0.00" departDelay="0.00" arrival="70.00" arrivalLane="93_4way_41to4way_42_0" arrivalPos="85.60" arrivalSpeed="5.62" duration="62.00" routeLength="275.13" waitingTime="31.00" waitingCount="1" stopTime="0.00" timeLoss="41.02" rerouteNo="0" devices="tripinfo_24" vType="DEFAULT_VEHTYPE" speedFactor="0.97" vaporized=""/>
    <tripinfo id="41" depart="14.00" departLane="41_3way_59to4way_51_0" departPos="5.10" departSpeed="0.00" departDelay="0.33" arrival="70.00" arrivalLane="84_4way_35to4way_34_0" arrivalPos="85.60" arrivalSpeed="4.91" duration="56.00" routeLength="375.13" waitingTime="20.00" waitingCount="1" stopTime="0.00" timeLoss="31.33" rerouteNo="0" devices="tripinfo_41" vType="DEFAULT_VEHTYPE" speedFactor="1.12" vaporized=""/>
    <tripinfo id="71" depart="24.00" departLane="54_4way_12to4way_13_0" departPos="5.10" departSpeed="0.00" departDelay="0.34" arrival="70.00" arrivalLane="54_4way_12to4way_13_0" arrivalPos="85.60" arrivalSpeed="5.23" duration="46.00" routeLength="80.50" waitingTime="32.00" waitingCount="1" stopTime="0.00" timeLoss="40.80" rerouteNo="0" devices="tripinfo_71" vType="DEFAULT_VEHTYPE" speedFactor="1.13" vaporized=""/>
    <tripinfo id="81" depart="27.00" departLane="91_4way_37to4way_45_0" departPos="5.10" departSpeed="0.00" departDelay="0.00" arrival="70.00" arrivalLane="101_4way_45to4way_46_0" arrivalPos="85.60" arrivalSpeed="5.10" duration="43.00" routeLength="175.13" waitingTime="20.00" waitingCount="1" stopTime="0.00" timeLoss="29.90" rerouteNo="0" devices="tripinfo_81" vType="DEFAULT_VEHTYPE" speedFactor="1.05" vaporized=""/>
    <tripinfo id="95" depart="32.00" departLane="81_4way_30to4way_38_0" departPos="5.10" departSpeed="0.00" departDelay="0.34" arrival="70.00" arrivalLane="35_4way_54to3way_55_0" arrivalPos="85.60" arrivalSpeed="11.42" duration="38.00" routeLength="375.13" waitingTime="0.00" waitingCount="0" stopTime="0.00" timeLoss="6.10" rerouteNo="0" devices="tripinfo_95" vType="DEFAULT_VEHTYPE" speedFactor="0.88" vaporized=""/>
    <tripinfo id="118" depart="40.00" departLane="39_4way_50to3way_58_0" departPos="5.10" departSpeed="0.00" departDelay="0.67" arrival="70.00" arrivalLane="39_4way_50to3way_58_0" arrivalPos="85.60" arrivalSpeed="5.09" duration="30.00" routeLength="80.50" waitingTime="17.00" waitingCount="1" stopTime="0.00" timeLoss="24.46" rerouteNo="0" devices="tripinfo_118" vType="DEFAULT_VEHTYPE" speedFactor="1.05" vaporized=""/>
    <tripinfo id="80" depart="27.00" departLane="80_4way_37to4way_29_0" departPos="5.10" departSpeed="0.00" departDelay="0.34" arrival="71.00" arrivalLane="66_4way_21to4way_20_0" arrivalPos="85.60" arrivalSpeed="6.55" duration="44.00" routeLength="275.13" waitingTime="7.00" waitingCount="1" stopTime="0.00" timeLoss="16.97" rerouteNo="0" devices="tripinfo_80" vType="DEFAULT_VEHTYPE" speedFactor="0.78" vaporized=""/>
    <tripinfo id="131" depart="44.00" departLane="100_4way_52to4way_44_0" departPos="5.10" departSpeed="0.00" departDelay="0.34" arrival="73.00" arrivalLane="97_4way_44to4way_43_0" arrivalPos="85.60" arrivalSpeed="8.45" duration="29.00" routeLength="175.13" waitingTime="1.00" waitingCount="1" stopTime="0.00" timeLoss="11.97" rerouteNo="0" devices="tripinfo_131" vType="DEFAULT_VEHTYPE" speedFactor="0.82" vaporized=""/>
    <tripinfo id="132" depart="44.00" departLane="39_4way_50to3way_58_0" departPos="5.10" departSpeed="0.00" departDelay="0.00" arrival="73.00" arrivalLane="39_4way_50to3way_58_0" arrivalPos="85.60" arrivalSpeed="7.71" duration="29.00" routeLength="80.50" waitingTime="12.00" waitingCount="1" stopTime="0.00" timeLoss="21.95" rerouteNo="0" devices="tripinfo_132" vType="DEFAULT_VEHTYPE" speedFactor="0.86" vaporized=""/>
    <tripinfo id="134" depart="45.00" departLane="101_4way_45to4way_46_0" departPos="5.10" departSpeed="0.00" departDelay="0.34" arrival="73.00" arrivalLane="101_4way_45to4way_46_0" arrivalPos="85.60" arrivalSpeed="8.82" duration="28.00" routeLength="80.50" waitingTime="14.00" waitingCount="1" stopTime="0.00" timeLoss="21.62" rerouteNo="0" devices="tripinfo_134" vType="DEFAULT_VEHTYPE" speedFactor="1.00" vaporized=""/>
    <tripinfo id="2" depart="1.00" departLane="65_4way_27to4way_19_0" departPos="5.10" departSpeed="0.00" departDelay="0.33" arrival="77.00" arrivalLane="59_4way_18to4way_17_0" arrivalPos="85.60" arrivalSpeed="14.03" duration="76.00" routeLength="275.13" waitingTime="46.00" waitingCount="1" stopTime="0.00" timeLoss="56.02" rerouteNo="0" devices="tripinfo_2" vType="DEFAULT_VEHTYPE" speedFactor="1.04" vaporized=""/>
    <tripinfo id="50" depart="17.00" departLane="81_4way_38to4way_30_0" departPos="5.10" departSpeed="0.00" departDelay="0.33" arrival="77.00" arrivalLane="77_4way_29to4way_28_0" arrivalPos="85.60" arrivalSpeed="13.67" duration="60.00" routeLength="275.13" waitingTime="27.00" waitingCount="1" stopTime="0.00" timeLoss="38.95" rerouteNo="0" devices="tripinfo_50" vType="DEFAULT_VEHTYPE" speedFactor="1.01" vaporized=""/>
    <tripinfo id="59" depart="20.00" departLane="50_4way_10to4way_18_0" departPos="5.10" departSpeed="0.00" departDelay="0.33" arrival="77.00" arrivalLane="64_4way_19to4way_20_0" arrivalPos="85.60" arrivalSpeed="13.61" duration="57.00" routeLength="275.13" waitingTime="26.00" waitingCount="1" stopTime="0.00" timeLoss="36.41" rerouteNo="0" devices="tripinfo_59" vType="DEFAULT_VEHTYPE" speedFactor="1.03" vaporized=""/>
    <tripinfo id="64" depart="22.00" departLane="59_4way_17to4way_18_0" departPos="5.10" departSpeed="0.00" departDelay="0.67" arrival="77.00" arrivalLane="62_4way_18to4way_19_0" arrivalPos="85.60" arrivalSpeed="13.28" duration="55.00" routeLength="180.50" waitingTime="32.00" waitingCount="1" stopTime="0.00" timeLoss="41.33" rerouteNo="0" devices="tripinfo_64" vType="DEFAULT_VEHTYPE" speedFactor="0.96" vaporized=""/>
    <tripinfo id="68" depart="23.00" departLane="60_4way_17to4way_25_0" departPos="5.10" departSpeed="0.00" departDelay="0.34" arrival="77.00" arrivalLane="84_4way_34to4way_35_0" arrivalPos="85.60" arrivalSpeed="14.90" duration="54.00" routeLength="375.13" waitingTime="16.00" waitingCount="1" stopTime="0.00" timeLoss="27.80" rerouteNo="0" devices="tripinfo_68" vType="DEFAULT_VEHTYPE" speedFactor="1.09" vaporized=""/>
    <tripinfo id="72" depart="24.00" departLane="13_4way_22to3way_23_0" departPos="5.10" departSpeed="0.00" departDelay="0.00" arrival="77.00" arrivalLane="4_3way_23to3way_15_0" arrivalPos="85.60" arrivalSpeed="14.75" duration="53.00" routeLength="175.13" waitingTime="31.00" waitingCount="1" stopTime="0.00" timeLoss="40.57" rerouteNo="0" devices="tripinfo_72" vType="DEFAULT_VEHTYPE" speedFactor="1.15" vaporized=""/>
    <tripinfo id="113" depart="38.00" departLane="67_4way_20to4way_28_0" departPos="5.10" departSpeed="0.00" departDelay="0.34" arrival="77.00" arrivalLane="79_4way_29to4way_30_0" arrivalPos="85.60" arrivalSpeed="14.39" duration="39.00" routeLength="275.13" waitingTime="8.00" waitingCount="1" stopTime="0.00" timeLoss="19.89" rerouteNo="0" devices="tripinfo_113" vType="DEFAULT_VEHTYPE" speedFactor="1.10" vaporized=""/>
    <tripinfo id="5" depart="2.00" departLane="63_4way_18to4way_26_0" departPos="5.10" departSpeed="0.00" departDelay="0.33" arrival="78.00" arrivalLane="106_4way_51to4way_52_0" arrivalPos="85.60" arrivalSpeed="12.98" duration="76.00" routeLength="575.13" waitingTime="18.00" waitingCount="1" stopTime="0.00" timeLoss="30.08" rerouteNo="0" devices="tripinfo_5" vType="DEFAULT_VEHTYPE" speedFactor="0.94" vaporized=""/>
    <tripinfo id="67" depart="23.00" departLane="84_4way_35to4way_34_0" departPos="5.10" departSpeed="0.00" departDelay="0.67" arrival="78.00" arrivalLane="85_4way_34to4way_42_0" arrivalPos="85.60" arrivalSpeed="11.28" duration="55.00" routeLength="175.13" waitingTime="31.00" waitingCount="1" stopTime="0.00" timeLoss="39.39" rerouteNo="0" devices="tripinfo_67" vType="DEFAULT_VEHTYPE" speedFactor="0.88" vaporized=""/>
    <tripinfo id="207" depart="69.00" departLane="103_4way_54to4way_46_0" departPos="5.10" departSpeed="0.00" departDelay="0.01" arrival="78.00" arrivalLane="103_4way_54to4way_46_0" arrivalPos="85.60" arrivalSpeed="16.11" duration="9.00" routeLength="80.50" waitingTime="0.00" waitingCount="0" stopTime="0.00" timeLoss="4.09" rerouteNo="0" devices="tripinfo_207" vType="DEFAULT_VEHTYPE" speedFactor="1.24" vaporized=""/>
    <tripinfo id="90" depart="30.00" departLane="44_3way_60to4way_52_0" departPos="5.10" departSpeed="0.00" departDelay="0.00" arrival="79.00" arrivalLane="95_4way_43to4way_42_0" arrivalPos="85.60" arrivalSpeed="13.06" duration="49.00" routeLength="375.13" waitingTime="8.00" waitingCount="1" stopTime="0.00" timeLoss="19.62" rerouteNo="0" devices="tripinfo_90" vType="DEFAULT_VEHTYPE" speedFactor="0.95" vaporized=""/>
    <tripinfo id="62" depart="21.00" departLane="26_3way_48to3way_40_0" departPos="5.10" departSpeed="0.00" departDelay="0.33" arrival="81.00" arrivalLane="1_3way_1to3way_2_0" arrivalPos="85.60" arrivalSpeed="14.02" duration="60.00" routeLength="783.70" waitingTime="0.00" waitingCount="0" stopTime="0.00" timeLoss="5.60" rerouteNo="0" devices="tripinfo_62" vType="DEFAULT_VEHTYPE" speedFactor="1.05" vaporized=""/>
    <tripinfo id="79" depart="27.00" departLane="83_4way_33to4way_41_0" departPos="5.10" departSpeed="0.00" departDelay="0.67" arrival="81.00" arrivalLane="105_4way_50to4way_51_0" arrivalPos="85.60" arrivalSpeed="12.12" duration="54.00" routeLength="375.13" waitingTime="12.00" waitingCount="1" stopTime="0.00" timeLoss="23.35" rerouteNo="0" devices="tripinfo_79" vType="DEFAULT_VEHTYPE" speedFactor="0.90" vaporized=""/>
    <tripinfo id="102" depart="34.00" departLane="83_4way_33to4way_41_0" departPos="5.10" departSpeed="0.00" departDelay="0.00" arrival="81.00" arrivalLane="95_4way_42to4way_43_0" arrivalPos="85.60" arrivalSpeed="13.48" duration="47.00" routeLength="275.13" waitingTime="14.00" waitingCount="1" stopTime="0.00" timeLoss="26.93" rerouteNo="0" devices="tripinfo_102" vType="DEFAULT_VEHTYPE" speedFactor="1.05" vaporized=""/>
    <tripinfo id="140" depart="47.00" departLane="3_3way_1to4way_9_0" departPos="5.10" departSpeed="0.00" departDelay="0.34" arrival="83.00" arrivalLane="62_4way_18to4way_19_0" arrivalPos="85.60" arrivalSpeed="12.66" duration="36.00" routeLength="375.13" waitingTime="0.00" waitingCount="0" stopTime="0.00" timeLoss="5.98" rerouteNo="0" devices="tripinfo_140" vType="DEFAULT_VEHTYPE" speedFactor="0.93" vaporized=""/>
    <tripinfo id="214" depart="73.00" departLane="59_4way_17to4way_18_0" departPos="5.10" departSpeed="0.00" departDelay="1.67" arrival="83.00" arrivalLane="59_4way_17to4way_18_0" arrivalPos="85.60" arrivalSpeed="13.26" duration="10.00" routeLength="80.50" waitingTime="0.00" waitingCount="0" stopTime="0.00" timeLoss="3.45" rerouteNo="0" devices="tripinfo_214" vType="DEFAULT_VEHTYPE" speedFactor="1.00" vaporized=""/>
    <tripinfo id="60" depart="20.00" departLane="76_4way_27to4way_35_0" departPos="5.10" departSpeed="0.00" departDelay="0.00" arrival="84.00" arrivalLane="90_4way_37to4way_38_0" arrivalPos="85.60" arrivalSpeed="14.64" duration="64.00" routeLength="375.13" waitingTime="26.00" waitingCount="1" stopTime="0.00" timeLoss="38.58" rerouteNo="0" devices="tripinfo_60" vType="DEFAULT_VEHTYPE" speedFactor="1.12" vaporized=""/>
    <tripinfo id="11" depart="4.00" departLane="89_4way_44to4way_36_0" departPos="5.10" departSpeed="0.00" departDelay="0.33" arrival="85.00" arrivalLane="82_4way_34to4way_33_0" arrivalPos="85.60" arrivalSpeed="13.72" duration="81.00" routeLength="375.13" waitingTime="41.00" waitingCount="1" stopTime="0.00" timeLoss="53.02" rerouteNo="0" devices="tripinfo_11" vType="DEFAULT_VEHTYPE" speedFactor="1.01" vaporized=""/>
    <tripinfo id="57" depart="19.00" departLane="95_4way_42to4way_43_0" departPos="5.10" departSpeed="0.00" departDelay="0.00" arrival="85.00" arrivalLane="99_4way_44to4way_45_0" arrivalPos="85.60" arrivalSpeed="13.34" duration="66.00" routeLength="280.50" waitingTime="36.00" waitingCount="1" stopTime="0.00" timeLoss="44.49" rerouteNo="0" devices="tripinfo_57" vType="DEFAULT_VEHTYPE" speedFactor="0.97" vaporized=""/>