<?xml version="1.0" encoding="UTF-8"?>

<!-- generated on 2023-01-06 02:02:00 by Eclipse SUMO sumo Version 1.12.0
<configuration xmlns:xsi="http://www.w3.org/2001/XMLSchema-instance" xsi:noNamespaceSchemaLocation="http://sumo.dlr.de/xsd/sumoConfiguration.xsd">

    <input>
        <net-file value="../../data_generation/sq.net.xml"/>
        <route-files value="../../data_generation/sq.rou.xml"/>
    </input>

    <output>
        <tripinfo-output value="tripinfo.xml"/>
        <statistic-output value="statistic.xml"/>
    </output>

    <time>
        <begin value="0"/>
        <end value="3600"/>
    </time>

    <processing>
        <time-to-teleport value="-1"/>
    </processing>

    <traci_server>
        <remote-port value="38567"/>
    </traci_server>

    <random_number>
        <seed value="1395"/>
    </random_number>

    <gui_only>
        <gui-settings-file value="../../data_generation/view_HY_0402.xml"/>
    </gui_only>

</configuration>
-->

<tripinfos xmlns:xsi="http://www.w3.org/2001/XMLSchema-instance" xsi:noNamespaceSchemaLocation="http://sumo.dlr.de/xsd/tripinfo_file.xsd">
    <tripinfo id="22" depart="20.00" departLane="478_4way_291to4way_271_0" departPos="5.10" departSpeed="0.00" departDelay="0.42" arrival="37.00" arrivalLane="478_4way_291to4way_271_0" arrivalPos="185.60" arrivalSpeed="13.70" duration="17.00" routeLength="180.50" waitingTime="0.00" waitingCount="0" stopTime="0.00" timeLoss="3.65" rerouteNo="0" devices="tripinfo_22" vType="DEFAULT_VEHTYPE" speedFactor="1.00" vaporized=""/>
    <tripinfo id="18" depart="19.00" departLane="359_4way_230to4way_210_0" departPos="5.10" departSpeed="0.00" departDelay="2.98" arrival="52.00" arrivalLane="322_4way_210to4way_190_0" arrivalPos="185.60" arrivalSpeed="12.88" duration="33.00" routeLength="380.50" waitingTime="0.00" waitingCount="0" stopTime="0.00" timeLoss="4.23" rerouteNo="0" devices="tripinfo_18" vType="DEFAULT_VEHTYPE" speedFactor="0.96" vaporized=""/>
    <tripinfo id="27" depart="25.00" departLane="41_3way_180to3way_200_0" departPos="5.10" departSpeed="0.00" departDelay="0.97" arrival="73.00" arrivalLane="54_3way_220to4way_221_0" arrivalPos="185.60" arrivalSpeed="13.58" duration="48.00" routeLength="575.13" waitingTime="0.00" waitingCount="0" stopTime="0.00" timeLoss="6.47" rerouteNo="0" devices="tripinfo_27" vType="DEFAULT_VEHTYPE" speedFactor="1.03" vaporized=""/>
    <tripinfo id="9" depart="9.00" departLane="733_4way_76to4way_75_0" departPos="5.10" departSpeed="0.00" departDelay="0.99" arrival="86.00" arrivalLane="731_4way_75to4way_74_0" arrivalPos="185.60" arrivalSpeed="12.36" duration="77.00" routeLength="380.50" waitingTime="36.00" waitingCount="1" stopTime="0.00" timeLoss="46.32" rerouteNo="0" devices="tripinfo_9" vType="DEFAULT_VEHTYPE" speedFactor="0.91" vaporized=""/>
    <tripinfo id="7" depart="7.00" departLane="77_3way_359to3way_339_0" departPos="5.10" departSpeed="0.00" departDelay="0.77" arrival="104.00" arrivalLane="55_3way_259to3way_239_0" arrivalPos="185.60" arrivalSpeed="12.77" duration="97.00" routeLength="1180.50" waitingTime="0.00" waitingCount="0" stopTime="0.00" timeLoss="7.38" rerouteNo="0" devices="tripinfo_7" vType="DEFAULT_VEHTYPE" speedFactor="0.95" vaporized=""/>
    <tripinfo id="93" depart="83.00" departLane="628_4way_369to4way_349_0" departPos="5.10" departSpeed="0.00" departDelay="0.23" arrival="148.00" arrivalLane="547_4way_309to4way_308_0" arrivalPos="185.60" arrivalSpeed="12.81" duration="65.00" routeLength="775.13" waitingTime="0.00" waitingCount="0" stopTime="0.00" timeLoss="8.01" rerouteNo="0" devices="tripinfo_93" vType="DEFAULT_VEHTYPE" speedFactor="1.00" vaporized=""/>
    <tripinfo id="68" depart="61.00" departLane="254_4way_151to4way_171_0" departPos="5.10" departSpeed="0.00" departDelay="0.48" arrival="162.00" arrivalLane="432_4way_250to4way_249_0" arrivalPos="185.60" arrivalSpeed="14.66" duration="101.00" routeLength="1380.30" waitingTime="0.00" waitingCount="0" stopTime="0.00" timeLoss="9.11" rerouteNo="0" devices="tripinfo_68" vType="DEFAULT_VEHTYPE" speedFactor="1.09" vaporized=""/>
    <tripinfo id="160" depart="143.00" departLane="90_3way_382to4way_362_0" departPos="5.10" departSpeed="0.00" departDelay="0.60" arrival="162.00" arrivalLane="90_3way_382to4way_362_0" arrivalPos="185.60" arrivalSpeed="11.52" duration="19.00" routeLength="180.50" waitingTime="0.00" waitingCount="0" stopTime="0.00" timeLoss="3.37" rerouteNo="0" devices="tripinfo_160" vType="DEFAULT_VEHTYPE" speedFactor="0.88" vaporized=""/>
    <tripinfo id="148" depart="133.00" departLane="666_4way_375to4way_376_0" departPos="5.10" departSpeed="0.00" departDelay="1.28" arrival="167.00" arrivalLane="120_4way_376to3way_396_0" arrivalPos="185.60" arrivalSpeed="14.09" duration="34.00" routeLength="380.30" waitingTime="0.00" waitingCount="0" stopTime="0.00" timeLoss="7.41" rerouteNo="0" devices="tripinfo_148" vType="DEFAULT_VEHTYPE" speedFactor="1.07" vaporized=""/>
    <tripinfo id="167" depart="149.00" departLane="697_4way_54to4way_74_0" departPos="5.10" departSpeed="0.00" departDelay="0.37" arrival="168.00" arrivalLane="697_4way_54to4way_74_0" arrivalPos="185.60" arrivalSpeed="11.49" duration="19.00" routeLength="180.50" waitingTime="0.00" waitingCount="0" stopTime="0.00" timeLoss="3.52" rerouteNo="0" devices="tripinfo_167" vType="DEFAULT_VEHTYPE" speedFactor="0.85" vaporized=""/>
    <tripinfo id="25" depart="23.00" departLane="426_4way_246to4way_247_0" departPos="5.10" departSpeed="0.00" departDelay="0.75" arrival="179.00" arrivalLane="355_4way_229to4way_209_0" arrivalPos="185.60" arrivalSpeed="12.78" duration="156.00" routeLength="975.13" waitingTime="61.00" waitingCount="2" stopTime="0.00" timeLoss="80.60" rerouteNo="0" devices="tripinfo_25" vType="DEFAULT_VEHTYPE" speedFactor="0.95" vaporized=""/>
    <tripinfo id="198" depart="177.00" departLane="540_4way_324to4way_304_0" departPos="5.10" departSpeed="0.00" departDelay="0.78" arrival="196.00" arrivalLane="540_4way_324to4way_304_0" arrivalPos="185.60" arrivalSpeed="11.65" duration="19.00" routeLength="180.50" waitingTime="0.00" waitingCount="0" stopTime="0.00" timeLoss="3.28" rerouteNo="0" devices="tripinfo_198" vType="DEFAULT_VEHTYPE" speedFactor="0.87" vaporized=""/>
    <tripinfo id="118" depart="106.00" departLane="165_4way_87to4way_107_0" departPos="5.10" departSpeed="0.00" departDelay="0.98" arrival="204.00" arrivalLane="157_4way_106to4way_105_0" arrivalPos="185.60" arrivalSpeed="14.02" duration="98.00" routeLength="580.30" waitingTime="45.00" waitingCount="1" stopTime="0.00" timeLoss="57.40" rerouteNo="0" devices="tripinfo_118" vType="DEFAULT_VEHTYPE" speedFactor="1.05" vaporized=""/>
    <tripinfo id="14" depart="13.00" departLane="716_4way_66to4way_86_0" departPos="5.10" departSpeed="0.00" departDelay="0.54" arrival="205.00" arrivalLane="315_4way_187to4way_188_0" arrivalPos="185.60" arrivalSpeed="12.42" duration="192.00" routeLength="1575.13" waitingTime="51.00" waitingCount="2" stopTime="0.00" timeLoss="71.29" rerouteNo="0" devices="tripinfo_14" vType="DEFAULT_VEHTYPE" speedFactor="0.95" vaporized=""/>
    <tripinfo id="26" depart="24.00" departLane="115_3way_394to3way_395_0" departPos="5.10" departSpeed="0.00" departDelay="0.86" arrival="205.00" arrivalLane="530_4way_318to4way_298_0" arrivalPos="185.60" arrivalSpeed="13.54" duration="181.00" routeLength="1769.56" waitingTime="32.00" waitingCount="2" stopTime="0.00" timeLoss="55.76" rerouteNo="0" devices="tripinfo_26" vType="DEFAULT_VEHTYPE" speedFactor="1.03" vaporized=""/>
    <tripinfo id="37" depart="33.00" departLane="27_3way_16to3way_15_0" departPos="5.10" departSpeed="0.00" departDelay="0.07" arrival="205.00" arrivalLane="181_4way_114to4way_113_0" arrivalPos="185.60" arrivalSpeed="12.68" duration="172.00" routeLength="1574.93" waitingTime="40.00" waitingCount="1" stopTime="0.00" timeLoss="56.24" rerouteNo="0" devices="tripinfo_37" vType="DEFAULT_VEHTYPE" speedFactor="0.99" vaporized=""/>
    <tripinfo id="20" depart="18.00" departLane="427_4way_246to4way_266_0" departPos="5.10" departSpeed="0.00" departDelay="0.20" arrival="206.00" arrivalLane="579_4way_324to4way_344_0" arrivalPos="185.60" arrivalSpeed="12.35" duration="188.00" routeLength="1374.93" waitingTime="57.00" waitingCount="2" stopTime="0.00" timeLoss="75.56" rerouteNo="0" devices="tripinfo_20" vType="DEFAULT_VEHTYPE" speedFactor="0.89" vaporized=""/>
    <tripinfo id="53" depart="48.00" departLane="393_4way_229to4way_230_0" departPos="5.10" departSpeed="0.00" departDelay="0.83" arrival="206.00" arrivalLane="532_4way_50to4way_30_0" arrivalPos="185.60" arrivalSpeed="14.53" duration="158.00" routeLength="2175.13" waitingTime="8.00" waitingCount="2" stopTime="0.00" timeLoss="33.34" rerouteNo="0" devices="tripinfo_53" vType="DEFAULT_VEHTYPE" speedFactor="1.27" vaporized=""/>
    <tripinfo id="62" depart="56.00" departLane="217_4way_150to4way_130_0" departPos="5.10" departSpeed="0.00" departDelay="0.82" arrival="206.00" arrivalLane="208_4way_127to4way_126_0" arrivalPos="185.60" arrivalSpeed="14.39" duration="150.00" routeLength="975.13" waitingTime="60.00" waitingCount="2" stopTime="0.00" timeLoss="81.21" rerouteNo="0" devices="tripinfo_62" vType="DEFAULT_VEHTYPE" speedFactor="1.05" vaporized=""/>
    <tripinfo id="156" depart="139.00" departLane="81_3way_379to3way_359_0" departPos="5.10" departSpeed="0.00" departDelay="0.16" arrival="207.00" arrivalLane="67_3way_319to3way_299_0" arrivalPos="185.60" arrivalSpeed="12.17" duration="68.00" routeLength="780.50" waitingTime="0.00" waitingCount="0" stopTime="0.00" timeLoss="6.28" rerouteNo="0" devices="tripinfo_156" vType="DEFAULT_VEHTYPE" speedFactor="0.91" vaporized=""/>
    <tripinfo id="142" depart="127.00" departLane="61_3way_280to3way_260_0" departPos="5.10" departSpeed="0.00" departDelay="0.62" arrival="215.00" arrivalLane="420_4way_243to4way_244_0" arrivalPos="185.60" arrivalSpeed="14.56" duration="88.00" routeLength="1180.30" waitingTime="0.00" waitingCount="0" stopTime="0.00" timeLoss="8.91" rerouteNo="0" devices="tripinfo_142" vType="DEFAULT_VEHTYPE" speedFactor="1.09" vaporized=""/>
    <tripinfo id="8" depart="8.00" departLane="188_4way_135to4way_115_0" departPos="5.10" departSpeed="0.00" departDelay="0.88" arrival="222.00" arrivalLane="5_3way_10to3way_9_0" arrivalPos="185.60" arrivalSpeed="12.39" duration="214.00" routeLength="2375.13" waitingTime="22.00" waitingCount="1" stopTime="0.00" timeLoss="38.19" rerouteNo="0" devices="tripinfo_8" vType="DEFAULT_VEHTYPE" speedFactor="0.98" vaporized=""/>
    <tripinfo id="149" depart="133.00" departLane="739_4way_78to4way_98_0" departPos="5.10" departSpeed="0.00" departDelay="0.39" arrival="222.00" arrivalLane="267_4way_158to4way_178_0" arrivalPos="185.60" arrivalSpeed="13.01" duration="89.00" routeLength="980.50" waitingTime="1.00" waitingCount="1" stopTime="0.00" timeLoss="13.98" rerouteNo="0" devices="tripinfo_149" vType="DEFAULT_VEHTYPE" speedFactor="0.95" vaporized=""/>
    <tripinfo id="95" depart="85.00" departLane="417_4way_241to4way_261_0" departPos="5.10" departSpeed="0.00" departDelay="0.45" arrival="226.00" arrivalLane="500_4way_284to4way_285_0" arrivalPos="185.60" arrivalSpeed="11.12" duration="141.00" routeLength="1175.13" waitingTime="30.00" waitingCount="1" stopTime="0.00" timeLoss="43.37" rerouteNo="0" devices="tripinfo_95" vType="DEFAULT_VEHTYPE" speedFactor="0.88" vaporized=""/>
    <tripinfo id="72" depart="65.00" departLane="325_4way_192to4way_193_0" departPos="5.10" departSpeed="0.00" departDelay="0.92" arrival="236.00" arrivalLane="520_4way_293to4way_294_0" arrivalPos="185.60" arrivalSpeed="15.09" duration="171.00" routeLength="1374.93" waitingTime="59.00" waitingCount="2" stopTime="0.00" timeLoss="83.88" rerouteNo="0" devices="tripinfo_72" vType="DEFAULT_VEHTYPE" speedFactor="1.15" vaporized=""/>
    <tripinfo id="108" depart="97.00" departLane="242_4way_165to4way_145_0" departPos="5.10" departSpeed="0.00" departDelay="0.88" arrival="239.00" arrivalLane="414_4way_25to4way_24_0" arrivalPos="185.60" arrivalSpeed="11.92" duration="142.00" routeLength="1575.13" waitingTime="0.00" waitingCount="0" stopTime="0.00" timeLoss="11.91" rerouteNo="0" devices="tripinfo_108" vType="DEFAULT_VEHTYPE" speedFactor="0.88" vaporized=""/>
    <tripinfo id="67" depart="60.00" departLane="628_4way_369to4way_349_0" departPos="5.10" departSpeed="0.00" departDelay="0.37" arrival="241.00" arrivalLane="355_4way_229to4way_209_0" arrivalPos="185.60" arrivalSpeed="11.53" duration="181.00" routeLength="1580.50" waitingTime="36.00" waitingCount="1" stopTime="0.00" timeLoss="50.99" rerouteNo="0" devices="tripinfo_67" vType="DEFAULT_VEHTYPE" speedFactor="0.88" vaporized=""/>
    <tripinfo id="103" depart="92.00" departLane="655_4way_366to4way_367_0" departPos="5.10" departSpeed="0.00" departDelay="0.33" arrival="246.00" arrivalLane="661_4way_370to4way_371_0" arrivalPos="185.60" arrivalSpeed="14.85" duration="154.00" routeLength="980.50" waitingTime="52.00" waitingCount="2" stopTime="0.00" timeLoss="92.42" rerouteNo="0" devices="tripinfo_103" vType="DEFAULT_VEHTYPE" speedFactor="1.15" vaporized=""/>
    <tripinfo id="51" depart="46.00" departLane="756_4way_98to4way_97_0" departPos="5.10" departSpeed="0.00" departDelay="0.61" arrival="250.00" arrivalLane="752_4way_94to4way_93_0" arrivalPos="185.60" arrivalSpeed="5.20" duration="204.00" routeLength="980.50" waitingTime="88.00" waitingCount="3" stopTime="0.00" timeLoss="108.87" rerouteNo="0" devices="tripinfo_51" vType="DEFAULT_VEHTYPE" speedFactor="0.74" vaporized=""/>
    <tripinfo id="164" depart="146.00" departLane="207_4way_145to4way_125_0" departPos="5.10" departSpeed="0.00" departDelay="0.04" arrival="250.00" arrivalLane="151_4way_104to4way_103_0" arrivalPos="185.60" arrivalSpeed="4.52" duration="104.00" routeLength="775.13" waitingTime="38.00" waitingCount="1" stopTime="0.00" timeLoss="52.57" rerouteNo="0" devices="tripinfo_164" vType="DEFAULT_VEHTYPE" speedFactor="1.11" vaporized=""/>
    <tripinfo id="59" depart="53.00" departLane="178_4way_112to4way_113_0" departPos="5.10" departSpeed="0.00" departDelay="0.49" arrival="256.00" arrivalLane="296_4way_175to4way_176_0" arrivalPos="185.60" arrivalSpeed="14.01" duration="203.00" routeLength="1374.93" waitingTime="85.00" waitingCount="3" stopTime="0.00" timeLoss="105.05" rerouteNo="0" devices="tripinfo_59" vType="DEFAULT_VEHTYPE" speedFactor="1.03" vaporized=""/>
    <tripinfo id="122" depart="109.00" departLane="463_4way_265to4way_266_0" departPos="5.10" departSpeed="0.00" departDelay="0.42" arrival="262.00" arrivalLane="480_4way_272to4way_292_0" arrivalPos="185.60" arrivalSpeed="16.60" duration="153.00" routeLength="1580.30" waitingTime="39.00" waitingCount="1" stopTime="0.00" timeLoss="57.91" rerouteNo="0" devices="tripinfo_122" vType="DEFAULT_VEHTYPE" speedFactor="1.20" vaporized=""/>
    <tripinfo id="32" depart="29.00" departLane="711_4way_65to4way_64_0" departPos="5.10" departSpeed="0.00" departDelay="0.52" arrival="264.00" arrivalLane="198_4way_122to4way_121_0" arrivalPos="185.60" arrivalSpeed="12.82" duration="235.00" routeLength="1374.93" waitingTime="106.00" waitingCount="4" stopTime="0.00" timeLoss="134.76" rerouteNo="0" devices="tripinfo_32" vType="DEFAULT_VEHTYPE" speedFactor="1.00" vaporized=""/>
    <tripinfo id="69" depart="62.00" departLane="279_4way_186to4way_166_0" departPos="5.10" departSpeed="0.00" departDelay="0.59" arrival="264.00" arrivalLane="251_4way_150to4way_151_0" arrivalPos="185.60" arrivalSpeed="10.48" duration="202.00" routeLength="1380.30" waitingTime="58.00" waitingCount="2" stopTime="0.00" timeLoss="79.09" rerouteNo="0" devices="tripinfo_69" vType="DEFAULT_VEHTYPE" speedFactor="0.82" vaporized=""/>
    <tripinfo id="126" depart="113.00" departLane="328_4way_193to4way_213_0" departPos="5.10" departSpeed="0.00" departDelay="0.86" arrival="264.00" arrivalLane="560_4way_313to4way_333_0" arrivalPos="185.60" arrivalSpeed="13.39" duration="151.00" routeLength="1380.50" waitingTime="32.00" waitingCount="2" stopTime="0.00" timeLoss="52.02" rerouteNo="0" devices="tripinfo_126" vType="DEFAULT_VEHTYPE" speedFactor="1.01" vaporized=""/>
    <tripinfo id="65" depart="58.00" departLane="279_4way_166to4way_186_0" departPos="5.10" departSpeed="0.00" departDelay="0.15" arrival="265.00" arrivalLane="393_4way_229to4way_230_0" arrivalPos="185.60" arrivalSpeed="15.79" duration="207.00" routeLength="1375.13" waitingTime="90.00" waitingCount="3" stopTime="0.00" timeLoss="122.92" rerouteNo="0" devices="tripinfo_65" vType="DEFAULT_VEHTYPE" speedFactor="1.20" vaporized=""/>
    <tripinfo id="127" depart="114.00" departLane="78_3way_339to4way_338_0" departPos="5.10" departSpeed="0.00" departDelay="0.97" arrival="265.00" arrivalLane="604_4way_337to4way_336_0" arrivalPos="185.60" arrivalSpeed="13.55" duration="151.00" routeLength="580.50" waitingTime="97.00" waitingCount="1" stopTime="0.00" timeLoss="108.19" rerouteNo="0" devices="tripinfo_127" vType="DEFAULT_VEHTYPE" speedFactor="1.00" vaporized=""/>
    <tripinfo id="163" depart="146.00" departLane="179_4way_132to4way_112_0" departPos="5.10" departSpeed="0.00" departDelay="0.93" arrival="265.00" arrivalLane="571_4way_52to4way_32_0" arrivalPos="185.60" arrivalSpeed="11.86" duration="119.00" routeLength="980.50" waitingTime="29.00" waitingCount="2" stopTime="0.00" timeLoss="43.64" rerouteNo="0" devices="tripinfo_163" vType="DEFAULT_VEHTYPE" speedFactor="0.94" vaporized=""/>
    <tripinfo id="189" depart="169.00" departLane="512_4way_30to4way_29_0" departPos="5.10" departSpeed="0.00" departDelay="0.79" arrival="265.00" arrivalLane="474_4way_27to4way_47_0" arrivalPos="185.60" arrivalSpeed="12.61" duration="96.00" routeLength="775.13" waitingTime="24.00" waitingCount="1" stopTime="0.00" timeLoss="34.62" rerouteNo="0" devices="tripinfo_189" vType="DEFAULT_VEHTYPE" speedFactor="0.92" vaporized=""/>
    <tripinfo id="29" depart="26.00" departLane="235_4way_142to4way_143_0" departPos="5.10" departSpeed="0.00" departDelay="0.19" arrival="266.00" arrivalLane="164_4way_127to4way_107_0" arrivalPos="185.60" arrivalSpeed="12.42" duration="240.00" routeLength="1375.13" waitingTime="100.00" waitingCount="4" stopTime="0.00" timeLoss="134.54" rerouteNo="0" devices="tripinfo_29" vType="DEFAULT_VEHTYPE" speedFactor="0.95" vaporized=""/>
    <tripinfo id="115" depart="104.00" departLane="455_4way_261to4way_262_0" departPos="5.10" departSpeed="0.00" departDelay="1.65" arrival="266.00" arrivalLane="380_4way_242to4way_222_0" arrivalPos="185.60" arrivalSpeed="12.10" duration="162.00" routeLength="575.13" waitingTime="102.00" waitingCount="2" stopTime="0.00" timeLoss="115.92" rerouteNo="0" devices="tripinfo_115" vType="DEFAULT_VEHTYPE" speedFactor="0.92" vaporized=""/>
    <tripinfo id="158" depart="141.00" departLane="166_4way_109to4way_108_0" departPos="5.10" departSpeed="0.00" departDelay="0.38" arrival="266.00" arrivalLane="160_4way_107to4way_106_0" arrivalPos="185.60" arrivalSpeed="12.33" duration="125.00" routeLength="580.50" waitingTime="63.00" waitingCount="2" stopTime="0.00" timeLoss="80.83" rerouteNo="0" devices="tripinfo_158" vType="DEFAULT_VEHTYPE" speedFactor="0.96" vaporized=""/>
    <tripinfo id="66" depart="59.00" departLane="379_4way_223to4way_222_0" departPos="5.10" departSpeed="0.00" departDelay="0.26" arrival="267.00" arrivalLane="88_4way_361to3way_381_0" arrivalPos="185.60" arrivalSpeed="10.86" duration="208.00" routeLength="1969.56" waitingTime="14.00" waitingCount="2" stopTime="0.00" timeLoss="40.05" rerouteNo="0" devices="tripinfo_66" vType="DEFAULT_VEHTYPE" speedFactor="0.86" vaporized=""/>
    <tripinfo id="197" depart="176.00" departLane="702_4way_58to4way_57_0" departPos="5.10" departSpeed="0.00" departDelay="0.67" arrival="270.00" arrivalLane="24_4way_34to3way_14_0" arrivalPos="185.60" arrivalSpeed="12.75" duration="94.00" routeLength="1180.30" waitingTime="0.00" waitingCount="0" stopTime="0.00" timeLoss="8.35" rerouteNo="0" devices="tripinfo_197" vType="DEFAULT_VEHTYPE" speedFactor="1.01" vaporized=""/>
    <tripinfo id="47" depart="42.00" departLane="357_4way_21to4way_41_0" departPos="5.10" departSpeed="0.00" departDelay="0.17" arrival="274.00" arrivalLane="203_4way_123to4way_143_0" arrivalPos="185.60" arrivalSpeed="11.56" duration="232.00" routeLength="1574.93" waitingTime="83.00" waitingCount="2" stopTime="0.00" timeLoss="103.64" rerouteNo="0" devices="tripinfo_47" vType="DEFAULT_VEHTYPE" speedFactor="0.90" vaporized=""/>
    <tripinfo id="217" depart="194.00" departLane="209_4way_126to4way_146_0" departPos="5.10" departSpeed="0.00" departDelay="0.87" arrival="276.00" arrivalLane="245_4way_147to4way_148_0" arrivalPos="185.60" arrivalSpeed="14.96" duration="82.00" routeLength="575.13" waitingTime="34.00" waitingCount="1" stopTime="0.00" timeLoss="44.26" rerouteNo="0" devices="tripinfo_217" vType="DEFAULT_VEHTYPE" speedFactor="1.12" vaporized=""/>
    <tripinfo id="17" depart="16.00" departLane="359_4way_230to4way_210_0" departPos="5.10" departSpeed="0.00" departDelay="0.87" arrival="278.00" arrivalLane="140_3way_9to3way_8_0" arrivalPos="185.60" arrivalSpeed="14.04" duration="262.00" routeLength="2575.13" waitingTime="54.00" waitingCount="3" stopTime="0.00" timeLoss="82.17" rerouteNo="0" devices="tripinfo_17" vType="DEFAULT_VEHTYPE" speedFactor="1.04" vaporized=""/>
    <tripinfo id="210" depart="187.00" departLane="530_4way_318to4way_298_0" departPos="5.10" departSpeed="0.00" departDelay="0.10" arrival="278.00" arrivalLane="302_4way_198to4way_178_0" arrivalPos="185.60" arrivalSpeed="16.49" duration="91.00" routeLength="1380.50" waitingTime="0.00" waitingCount="0" stopTime="0.00" timeLoss="6.87" rerouteNo="0" devices="tripinfo_210" vType="DEFAULT_VEHTYPE" speedFactor="1.20" vaporized=""/>
    <tripinfo id="10" depart="9.00" departLane="405_4way_234to4way_235_0" departPos="5.10" departSpeed="0.00" departDelay="0.10" arrival="281.00" arrivalLane="374_4way_238to4way_218_0" arrivalPos="185.60" arrivalSpeed="13.16" duration="272.00" routeLength="975.13" waitingTime="178.00" waitingCount="3" stopTime="0.00" timeLoss="202.54" rerouteNo="0" devices="tripinfo_10" vType="DEFAULT_VEHTYPE" speedFactor="1.04" vaporized=""/>
    <tripinfo id="203" depart="181.00" departLane="708_4way_62to4way_82_0" departPos="5.10" departSpeed="0.00" departDelay="0.33" arrival="281.00" arrivalLane="742_4way_83to4way_84_0" arrivalPos="185.60" arrivalSpeed="12.94" duration="100.00" routeLength="575.13" waitingTime="45.00" waitingCount="1" stopTime="0.00" timeLoss="55.06" rerouteNo="0" devices="tripinfo_203" vType="DEFAULT_VEHTYPE" speedFactor="0.95" vaporized=""/>
    <tripinfo id="159" depart="142.00" departLane="663_4way_372to4way_373_0" departPos="5.10" departSpeed="0.00" departDelay="0.49" arrival="282.00" arrivalLane="642_4way_375to4way_355_0" arrivalPos="185.60" arrivalSpeed="13.32" duration="140.00" routeLength="775.13" waitingTime="64.00" waitingCount="2" stopTime="0.00" timeLoss="82.94" rerouteNo="0" devices="tripinfo_159" vType="DEFAULT_VEHTYPE" speedFactor="0.99" vaporized=""/>
    <tripinfo id="201" depart="179.00" departLane="568_4way_317to4way_337_0" departPos="5.10" departSpeed="0.00" departDelay="0.11" arrival="282.00" arrivalLane="118_4way_375to3way_395_0" arrivalPos="185.60" arrivalSpeed="12.91" duration="103.00" routeLength="1174.93" waitingTime="0.00" waitingCount="0" stopTime="0.00" timeLoss="11.21" rerouteNo="0" devices="tripinfo_201" vType="DEFAULT_VEHTYPE" speedFactor="0.93" vaporized=""/>
    <tripinfo id="89" depart="80.00" departLane="15_3way_13to3way_12_0" departPos="5.10" departSpeed="0.00" departDelay="0.79" arrival="284.00" arrivalLane="291_4way_172to4way_192_0" arrivalPos="185.60" arrivalSpeed="12.30" duration="204.00" routeLength="1975.13" waitingTime="29.00" waitingCount="2" stopTime="0.00" timeLoss="50.33" rerouteNo="0" devices="tripinfo_89" vType="DEFAULT_VEHTYPE" speedFactor="0.93" vaporized=""/>
    <tripinfo id="23" depart="21.00" departLane="92_3way_383to4way_363_0" departPos="5.10" departSpeed="0.00" departDelay="0.53" arrival="285.00" arrivalLane="416_4way_242to4way_241_0" arrivalPos="185.60" arrivalSpeed="11.66" duration="264.00" routeLength="1769.56" waitingTime="87.00" waitingCount="3" stopTime="0.00" timeLoss="115.70" rerouteNo="0" devices="tripinfo_23" vType="DEFAULT_VEHTYPE" speedFactor="0.87" vaporized=""/>
    <tripinfo id="303" depart="270.00" departLane="148_4way_102to4way_103_0" departPos="5.10" departSpeed="0.00" departDelay="0.33" arrival="287.00" arrivalLane="148_4way_102to4way_103_0" arrivalPos="185.60" arrivalSpeed="13.50" duration="17.00" routeLength="180.50" waitingTime="0.00" waitingCount="0" stopTime="0.00" timeLoss="4.25" rerouteNo="0" devices="tripinfo_303" vType="DEFAULT_VEHTYPE" speedFactor="1.02" vaporized=""/>
    <tripinfo id="78" depart="70.00" departLane="355_4way_209to4way_229_0" departPos="5.10" departSpeed="0.00" departDelay="0.58" arrival="294.00" arrivalLane="484_4way_274to4way_294_0" arrivalPos="185.60" arrivalSpeed="13.92" duration="224.00" routeLength="1774.93" waitingTime="69.00" waitingCount="3" stopTime="0.00" timeLoss="97.71" rerouteNo="0" devices="tripinfo_78" vType="DEFAULT_VEHTYPE" speedFactor="1.03" vaporized=""/>
    <tripinfo id="61" depart="55.00" departLane="726_4way_91to4way_71_0" departPos="5.10" departSpeed="0.00" departDelay="0.71" arrival="297.00" arrivalLane="669_4way_58to4way_38_0" arrivalPos="185.60" arrivalSpeed="13.69" duration="242.00" routeLength="1974.93" waitingTime="80.00" waitingCount="1" stopTime="0.00" timeLoss="98.77" rerouteNo="0" devices="tripinfo_61" vType="DEFAULT_VEHTYPE" speedFactor="1.01" vaporized=""/>
    <tripinfo id="117" depart="105.00" departLane="244_4way_146to4way_166_0" departPos="5.10" departSpeed="0.00" departDelay="0.87" arrival="302.00" arrivalLane="339_4way_201to4way_221_0" arrivalPos="185.60" arrivalSpeed="12.38" duration="197.00" routeLength="1774.93" waitingTime="24.00" waitingCount="3" stopTime="0.00" timeLoss="53.46" rerouteNo="0" devices="tripinfo_117" vType="DEFAULT_VEHTYPE" speedFactor="0.91" vaporized=""/>
    <tripinfo id="135" depart="121.00" departLane="229_4way_136to4way_156_0" departPos="5.10" departSpeed="0.00" departDelay="0.85" arrival="307.00" arrivalLane="372_4way_217to4way_218_0" arrivalPos="185.60" arrivalSpeed="14.80" duration="186.00" routeLength="1175.13" waitingTime="93.00" waitingCount="1" stopTime="0.00" timeLoss="107.08" rerouteNo="0" devices="tripinfo_135" vType="DEFAULT_VEHTYPE" speedFactor="1.09" vaporized=""/>
    <tripinfo id="170" depart="152.00" departLane="199_4way_141to4way_121_0" departPos="5.10" departSpeed="0.00" departDelay="0.70" arrival="313.00" arrivalLane="711_4way_64to4way_65_0" arrivalPos="185.60" arrivalSpeed="8.32" duration="161.00" routeLength="1580.30" waitingTime="17.00" waitingCount="4" stopTime="0.00" timeLoss="45.67" rerouteNo="0" devices="tripinfo_170" vType="DEFAULT_VEHTYPE" speedFactor="1.00" vaporized=""/>
    <tripinfo id="245" depart="219.00" departLane="512_4way_30to4way_29_0" departPos="5.10" departSpeed="0.00" departDelay="0.95" arrival="314.00" arrivalLane="395_4way_24to4way_23_0" arrivalPos="185.60" arrivalSpeed="15.36" duration="95.00" routeLength="1380.50" waitingTime="0.00" waitingCount="0" stopTime="0.00" timeLoss="7.91" rerouteNo="0" devices="tripinfo_245" vType="DEFAULT_VEHTYPE" speedFactor="1.15" vaporized=""/>
    <tripinfo id="199" depart="178.00" departLane="670_4way_41to4way_42_0" departPos="5.10" departSpeed="0.00" departDelay="0.89" arrival="315.00" arrivalLane="137_4way_27to3way_7_0" arrivalPos="185.60" arrivalSpeed="16.54" duration="137.00" routeLength="1569.56" waitingTime="24.00" waitingCount="1" stopTime="0.00" timeLoss="40.44" rerouteNo="0" devices="tripinfo_199" vType="DEFAULT_VEHTYPE" speedFactor="1.20" vaporized=""/>
    <tripinfo id="332" depart="296.00" departLane="542_4way_305to4way_325_0" departPos="5.10" departSpeed="0.00" departDelay="0.52" arrival="315.00" arrivalLane="542_4way_305to4way_325_0" arrivalPos="185.60" arrivalSpeed="10.74" duration="19.00" routeLength="180.50" waitingTime="0.00" waitingCount="0" stopTime="0.00" timeLoss="3.07" rerouteNo="0" devices="tripinfo_332" vType="DEFAULT_VEHTYPE" speedFactor="0.83" vaporized=""/>
    <tripinfo id="64" depart="57.00" departLane="237_4way_143to4way_144_0" departPos="5.10" departSpeed="0.00" departDelay="0.04" arrival="318.00" arrivalLane="324_4way_191to4way_211_0" arrivalPos="185.60" arrivalSpeed="12.34" duration="261.00" routeLength="2180.30" waitingTime="73.00" waitingCount="2" stopTime="0.00" timeLoss="96.49" rerouteNo="0" devices="tripinfo_64" vType="DEFAULT_VEHTYPE" speedFactor="0.96" vaporized=""/>
    <tripinfo id="124" depart="111.00" departLane="504_4way_287to4way_286_0" departPos="5.10" departSpeed="0.00" departDelay="0.64" arrival="323.00" arrivalLane="65_3way_280to3way_300_0" arrivalPos="185.60" arrivalSpeed="15.00" duration="212.00" routeLength="1575.13" waitingTime="83.00" waitingCount="3" stopTime="0.00" timeLoss="109.20" rerouteNo="0" devices="tripinfo_124" vType="DEFAULT_VEHTYPE" speedFactor="1.11" vaporized=""/>
    <tripinfo id="284" depart="253.00" departLane="230_4way_138to4way_137_0" departPos="5.10" departSpeed="0.00" departDelay="0.24" arrival="323.00" arrivalLane="187_4way_116to4way_115_0" arrivalPos="185.60" arrivalSpeed="15.57" duration="70.00" routeLength="774.93" waitingTime="6.00" waitingCount="1" stopTime="0.00" timeLoss="18.88" rerouteNo="0" devices="tripinfo_284" vType="DEFAULT_VEHTYPE" speedFactor="1.12" vaporized=""/>
    <tripinfo id="326" depart="291.00" departLane="18_3way_120to4way_121_0" departPos="5.10" departSpeed="0.00" departDelay="0.86" arrival="323.00" arrivalLane="198_4way_121to4way_122_0" arrivalPos="185.60" arrivalSpeed="13.51" duration="32.00" routeLength="380.50" waitingTime="0.00" waitingCount="0" stopTime="0.00" timeLoss="4.01" rerouteNo="0" devices="tripinfo_326" vType="DEFAULT_VEHTYPE" speedFactor="1.00" vaporized=""/>