<?xml version="1.0" encoding="UTF-8"?>

<!-- generated on 2023-07-28 11:08:22 by Eclipse SUMO sumo Version 1.12.0
<configuration xmlns:xsi="http://www.w3.org/2001/XMLSchema-instance" xsi:noNamespaceSchemaLocation="http://sumo.dlr.de/xsd/sumoConfiguration.xsd">

    <input>
        <net-file value="../../data_generation/sq.net.xml"/>
        <route-files value="../../data_generation/sq.rou.xml"/>
    </input>

    <output>
        <tripinfo-output value="tripinfo.xml"/>
        <statistic-output value="statistic.xml"/>
    </output>

    <time>
        <begin value="0"/>
        <end value="3600"/>
    </time>

    <processing>
        <time-to-teleport value="-1"/>
    </processing>

    <traci_server>
        <remote-port value="34739"/>
    </traci_server>

    <random_number>
        <seed value="1395"/>
    </random_number>

    <gui_only>
        <gui-settings-file value="../../data_generation/view_HY_0402.xml"/>
    </gui_only>

</configuration>
-->

<tripinfos xmlns:xsi="http://www.w3.org/2001/XMLSchema-instance" xsi:noNamespaceSchemaLocation="http://sumo.dlr.de/xsd/tripinfo_file.xsd">
    <tripinfo id="0" depart="0.00" departLane="131_4way_55to4way_54_0" departPos="5.10" departSpeed="0.00" departDelay="0.00" arrival="17.00" arrivalLane="129_4way_54to4way_53_0" arrivalPos="85.60" arrivalSpeed="12.69" duration="17.00" routeLength="180.50" waitingTime="0.00" waitingCount="0" stopTime="0.00" timeLoss="3.98" rerouteNo="0" devices="tripinfo_0" vType="DEFAULT_VEHTYPE" speedFactor="1.00" vaporized=""/>
    <tripinfo id="18" depart="7.00" departLane="102_4way_44to4way_34_0" departPos="5.10" departSpeed="0.00" departDelay="3.00" arrival="17.00" arrivalLane="102_4way_44to4way_34_0" arrivalPos="85.60" arrivalSpeed="12.04" duration="10.00" routeLength="80.50" waitingTime="0.00" waitingCount="0" stopTime="0.00" timeLoss="3.08" rerouteNo="0" devices="tripinfo_18" vType="DEFAULT_VEHTYPE" speedFactor="0.96" vaporized=""/>
    <tripinfo id="9" depart="2.00" departLane="108_4way_47to4way_37_0" departPos="5.10" departSpeed="0.00" departDelay="0.00" arrival="22.00" arrivalLane="105_4way_37to4way_36_0" arrivalPos="85.60" arrivalSpeed="12.00" duration="20.00" routeLength="175.13" waitingTime="0.00" waitingCount="0" stopTime="0.00" timeLoss="4.80" rerouteNo="0" devices="tripinfo_9" vType="DEFAULT_VEHTYPE" speedFactor="0.91" vaporized=""/>
    <tripinfo id="7" depart="2.00" departLane="7_3way_19to3way_8_0" departPos="5.10" departSpeed="0.00" departDelay="0.44" arrival="27.00" arrivalLane="39_3way_8to3way_7_0" arrivalPos="85.60" arrivalSpeed="12.03" duration="25.00" routeLength="277.30" waitingTime="0.00" waitingCount="0" stopTime="0.00" timeLoss="3.82" rerouteNo="0" devices="tripinfo_7" vType="DEFAULT_VEHTYPE" speedFactor="0.95" vaporized=""/>
    <tripinfo id="1" depart="1.00" departLane="129_4way_53to4way_54_0" departPos="5.10" departSpeed="0.00" departDelay="0.78" arrival="33.00" arrivalLane="87_4way_34to4way_24_0" arrivalPos="85.60" arrivalSpeed="14.39" duration="32.00" routeLength="375.13" waitingTime="0.00" waitingCount="0" stopTime="0.00" timeLoss="5.51" rerouteNo="0" devices="tripinfo_1" vType="DEFAULT_VEHTYPE" speedFactor="1.04" vaporized=""/>
    <tripinfo id="72" depart="16.00" departLane="79_4way_18to4way_28_0" departPos="5.10" departSpeed="0.00" departDelay="0.00" arrival="33.00" arrivalLane="14_4way_28to3way_29_0" arrivalPos="85.60" arrivalSpeed="15.17" duration="17.00" routeLength="175.13" waitingTime="0.00" waitingCount="0" stopTime="0.00" timeLoss="5.47" rerouteNo="0" devices="tripinfo_72" vType="DEFAULT_VEHTYPE" speedFactor="1.15" vaporized=""/>
    <tripinfo id="90" depart="20.00" departLane="52_3way_92to3way_93_0" departPos="5.10" departSpeed="0.00" departDelay="0.00" arrival="39.00" arrivalLane="55_3way_93to4way_83_0" arrivalPos="85.60" arrivalSpeed="12.85" duration="19.00" routeLength="175.13" waitingTime="0.00" waitingCount="0" stopTime="0.00" timeLoss="4.54" rerouteNo="0" devices="tripinfo_90" vType="DEFAULT_VEHTYPE" speedFactor="0.95" vaporized=""/>
    <tripinfo id="16" depart="4.00" departLane="145_4way_73to4way_63_0" departPos="5.10" departSpeed="0.00" departDelay="0.44" arrival="41.00" arrivalLane="112_4way_43to4way_42_0" arrivalPos="85.60" arrivalSpeed="12.13" duration="37.00" routeLength="375.13" waitingTime="0.00" waitingCount="0" stopTime="0.00" timeLoss="6.25" rerouteNo="0" devices="tripinfo_16" vType="DEFAULT_VEHTYPE" speedFactor="0.90" vaporized=""/>
    <tripinfo id="71" depart="16.00" departLane="119_4way_45to4way_55_0" departPos="5.10" departSpeed="0.00" departDelay="0.22" arrival="42.00" arrivalLane="148_4way_65to4way_66_0" arrivalPos="85.60" arrivalSpeed="14.62" duration="26.00" routeLength="275.13" waitingTime="0.00" waitingCount="0" stopTime="0.00" timeLoss="6.77" rerouteNo="0" devices="tripinfo_71" vType="DEFAULT_VEHTYPE" speedFactor="1.13" vaporized=""/>
    <tripinfo id="148" depart="33.00" departLane="139_4way_58to4way_68_0" departPos="5.10" departSpeed="0.00" departDelay="0.11" arrival="42.00" arrivalLane="139_4way_58to4way_68_0" arrivalPos="85.60" arrivalSpeed="14.31" duration="9.00" routeLength="80.50" waitingTime="0.00" waitingCount="0" stopTime="0.00" timeLoss="3.52" rerouteNo="0" devices="tripinfo_148" vType="DEFAULT_VEHTYPE" speedFactor="1.07" vaporized=""/>
    <tripinfo id="115" depart="26.00" departLane="16_3way_3to4way_13_0" departPos="5.10" departSpeed="0.00" departDelay="0.45" arrival="45.00" arrivalLane="70_4way_13to4way_23_0" arrivalPos="85.60" arrivalSpeed="11.74" duration="19.00" routeLength="180.50" waitingTime="0.00" waitingCount="0" stopTime="0.00" timeLoss="4.26" rerouteNo="0" devices="tripinfo_115" vType="DEFAULT_VEHTYPE" speedFactor="0.92" vaporized=""/>
    <tripinfo id="21" depart="5.00" departLane="27_3way_6to3way_5_0" departPos="5.10" departSpeed="0.00" departDelay="0.33" arrival="46.00" arrivalLane="89_4way_25to4way_35_0" arrivalPos="85.60" arrivalSpeed="10.51" duration="41.00" routeLength="375.13" waitingTime="0.00" waitingCount="0" stopTime="0.00" timeLoss="6.95" rerouteNo="0" devices="tripinfo_21" vType="DEFAULT_VEHTYPE" speedFactor="0.82" vaporized=""/>
    <tripinfo id="162" depart="36.00" departLane="89_4way_35to4way_25_0" departPos="5.10" departSpeed="0.00" departDelay="0.00" arrival="46.00" arrivalLane="89_4way_35to4way_25_0" arrivalPos="85.60" arrivalSpeed="12.17" duration="10.00" routeLength="80.50" waitingTime="0.00" waitingCount="0" stopTime="0.00" timeLoss="3.35" rerouteNo="0" devices="tripinfo_162" vType="DEFAULT_VEHTYPE" speedFactor="0.96" vaporized=""/>
    <tripinfo id="163" depart="37.00" departLane="30_4way_51to3way_50_0" departPos="5.10" departSpeed="0.00" departDelay="0.78" arrival="46.00" arrivalLane="30_4way_51to3way_50_0" arrivalPos="85.60" arrivalSpeed="12.25" duration="9.00" routeLength="80.50" waitingTime="0.00" waitingCount="0" stopTime="0.00" timeLoss="2.63" rerouteNo="0" devices="tripinfo_163" vType="DEFAULT_VEHTYPE" speedFactor="0.94" vaporized=""/>
    <tripinfo id="28" depart="7.00" departLane="50_3way_91to3way_92_0" departPos="5.10" departSpeed="0.00" departDelay="0.78" arrival="47.00" arrivalLane="128_4way_62to4way_52_0" arrivalPos="85.60" arrivalSpeed="13.69" duration="40.00" routeLength="475.13" waitingTime="0.00" waitingCount="0" stopTime="0.00" timeLoss="6.12" rerouteNo="0" devices="tripinfo_28" vType="DEFAULT_VEHTYPE" speedFactor="1.03" vaporized=""/>
    <tripinfo id="117" depart="26.00" departLane="113_4way_52to4way_42_0" departPos="5.10" departSpeed="0.00" departDelay="0.00" arrival="47.00" arrivalLane="110_4way_42to4way_41_0" arrivalPos="85.60" arrivalSpeed="11.85" duration="21.00" routeLength="175.13" waitingTime="0.00" waitingCount="0" stopTime="0.00" timeLoss="5.76" rerouteNo="0" devices="tripinfo_117" vType="DEFAULT_VEHTYPE" speedFactor="0.91" vaporized=""/>
    <tripinfo id="29" depart="7.00" departLane="19_3way_39to3way_49_0" departPos="5.10" departSpeed="0.00" departDelay="0.56" arrival="49.00" arrivalLane="43_3way_79to3way_89_0" arrivalPos="85.60" arrivalSpeed="12.11" duration="42.00" routeLength="480.50" waitingTime="0.00" waitingCount="0" stopTime="0.00" timeLoss="4.74" rerouteNo="0" devices="tripinfo_29" vType="DEFAULT_VEHTYPE" speedFactor="0.95" vaporized=""/>
    <tripinfo id="134" depart="30.00" departLane="138_4way_57to4way_67_0" departPos="5.10" departSpeed="0.00" departDelay="0.22" arrival="49.00" arrivalLane="152_4way_67to4way_68_0" arrivalPos="85.60" arrivalSpeed="13.11" duration="19.00" routeLength="175.13" waitingTime="0.00" waitingCount="0" stopTime="0.00" timeLoss="5.09" rerouteNo="0" devices="tripinfo_134" vType="DEFAULT_VEHTYPE" speedFactor="1.00" vaporized=""/>
    <tripinfo id="145" depart="33.00" departLane="61_3way_96to4way_86_0" departPos="5.10" departSpeed="0.00" departDelay="0.78" arrival="50.00" arrivalLane="166_4way_86to4way_76_0" arrivalPos="85.60" arrivalSpeed="13.27" duration="17.00" routeLength="180.50" waitingTime="0.00" waitingCount="0" stopTime="0.00" timeLoss="2.99" rerouteNo="0" devices="tripinfo_145" vType="DEFAULT_VEHTYPE" speedFactor="0.96" vaporized=""/>
    <tripinfo id="81" depart="18.00" departLane="108_4way_37to4way_47_0" departPos="5.10" departSpeed="0.00" departDelay="0.00" arrival="51.00" arrivalLane="152_4way_67to4way_68_0" arrivalPos="85.60" arrivalSpeed="13.52" duration="33.00" routeLength="375.13" waitingTime="0.00" waitingCount="0" stopTime="0.00" timeLoss="6.54" rerouteNo="0" devices="tripinfo_81" vType="DEFAULT_VEHTYPE" speedFactor="1.05" vaporized=""/>
    <tripinfo id="151" depart="34.00" departLane="53_3way_92to4way_82_0" departPos="5.10" departSpeed="0.00" departDelay="0.45" arrival="52.00" arrivalLane="170_4way_82to4way_81_0" arrivalPos="85.60" arrivalSpeed="13.12" duration="18.00" routeLength="175.13" waitingTime="0.00" waitingCount="0" stopTime="0.00" timeLoss="5.03" rerouteNo="0" devices="tripinfo_151" vType="DEFAULT_VEHTYPE" speedFactor="1.02" vaporized=""/>
    <tripinfo id="155" depart="35.00" departLane="7_3way_19to3way_8_0" departPos="5.10" departSpeed="0.00" departDelay="0.56" arrival="52.00" arrivalLane="7_3way_19to3way_8_0" arrivalPos="182.40" arrivalSpeed="12.04" duration="17.00" routeLength="177.30" waitingTime="0.00" waitingCount="0" stopTime="0.00" timeLoss="3.34" rerouteNo="0" devices="tripinfo_155" vType="DEFAULT_VEHTYPE" speedFactor="0.94" vaporized=""/>
    <tripinfo id="101" depart="23.00" departLane="33_3way_7to3way_6_0" departPos="5.10" departSpeed="0.00" departDelay="0.56" arrival="54.00" arrivalLane="15_3way_4to3way_3_0" arrivalPos="85.60" arrivalSpeed="13.84" duration="31.00" routeLength="380.50" waitingTime="0.00" waitingCount="0" stopTime="0.00" timeLoss="3.86" rerouteNo="0" devices="tripinfo_101" vType="DEFAULT_VEHTYPE" speedFactor="1.03" vaporized=""/>
    <tripinfo id="97" depart="22.00" departLane="46_3way_80to3way_91_0" departPos="5.10" departSpeed="0.00" departDelay="0.45" arrival="55.00" arrivalLane="52_3way_92to3way_93_0" arrivalPos="85.60" arrivalSpeed="14.13" duration="33.00" routeLength="377.30" waitingTime="0.00" waitingCount="0" stopTime="0.00" timeLoss="7.00" rerouteNo="0" devices="tripinfo_97" vType="DEFAULT_VEHTYPE" speedFactor="1.06" vaporized=""/>
    <tripinfo id="178" depart="40.00" departLane="168_4way_77to4way_87_0" departPos="5.10" departSpeed="0.00" departDelay="0.45" arrival="57.00" arrivalLane="63_4way_87to3way_97_0" arrivalPos="85.60" arrivalSpeed="13.57" duration="17.00" routeLength="180.50" waitingTime="0.00" waitingCount="0" stopTime="0.00" timeLoss="4.05" rerouteNo="0" devices="tripinfo_178" vType="DEFAULT_VEHTYPE" speedFactor="1.07" vaporized=""/>
    <tripinfo id="207" depart="46.00" departLane="169_4way_88to4way_78_0" departPos="5.10" departSpeed="0.00" departDelay="0.00" arrival="62.00" arrivalLane="154_4way_78to4way_68_0" arrivalPos="85.60" arrivalSpeed="16.88" duration="16.00" routeLength="180.50" waitingTime="0.00" waitingCount="0" stopTime="0.00" timeLoss="4.56" rerouteNo="0" devices="tripinfo_207" vType="DEFAULT_VEHTYPE" speedFactor="1.24" vaporized=""/>
    <tripinfo id="39" depart="9.00" departLane="156_4way_81to4way_71_0" departPos="5.10" departSpeed="0.00" departDelay="0.33" arrival="64.00" arrivalLane="12_4way_21to3way_20_0" arrivalPos="85.60" arrivalSpeed="14.24" duration="55.00" routeLength="675.13" waitingTime="0.00" waitingCount="0" stopTime="0.00" timeLoss="7.66" rerouteNo="0" devices="tripinfo_39" vType="DEFAULT_VEHTYPE" speedFactor="1.05" vaporized=""/>
    <tripinfo id="84" depart="19.00" departLane="27_3way_6to3way_5_0" departPos="5.10" departSpeed="0.00" departDelay="0.33" arrival="65.00" arrivalLane="85_4way_23to4way_33_0" arrivalPos="85.60" arrivalSpeed="13.97" duration="46.00" routeLength="575.13" waitingTime="0.00" waitingCount="0" stopTime="0.00" timeLoss="6.21" rerouteNo="0" devices="tripinfo_84" vType="DEFAULT_VEHTYPE" speedFactor="1.06" vaporized=""/>
    <tripinfo id="104" depart="24.00" departLane="56_3way_94to3way_95_0" departPos="5.10" departSpeed="0.00" departDelay="0.89" arrival="67.00" arrivalLane="64_3way_98to4way_88_0" arrivalPos="85.60" arrivalSpeed="13.19" duration="43.00" routeLength="475.13" waitingTime="0.00" waitingCount="0" stopTime="0.00" timeLoss="5.80" rerouteNo="0" devices="tripinfo_104" vType="DEFAULT_VEHTYPE" speedFactor="0.95" vaporized=""/>
    <tripinfo id="88" depart="20.00" departLane="22_3way_4to4way_14_0" departPos="5.10" departSpeed="0.00" departDelay="0.45" arrival="70.00" arrivalLane="116_4way_44to4way_45_0" arrivalPos="85.60" arrivalSpeed="4.54" duration="50.00" routeLength="475.13" waitingTime="6.00" waitingCount="1" stopTime="0.00" timeLoss="17.21" rerouteNo="0" devices="tripinfo_88" vType="DEFAULT_VEHTYPE" speedFactor="1.06" vaporized=""/>
    <tripinfo id="179" depart="41.00" departLane="113_4way_42to4way_52_0" departPos="5.10" departSpeed="0.00" departDelay="1.23" arrival="70.00" arrivalLane="127_4way_52to4way_53_0" arrivalPos="85.60" arrivalSpeed="5.62" duration="29.00" routeLength="175.13" waitingTime="4.00" waitingCount="1" stopTime="0.00" timeLoss="14.75" rerouteNo="0" devices="tripinfo_179" vType="DEFAULT_VEHTYPE" speedFactor="0.97" vaporized=""/>
    <tripinfo id="190" depart="43.00" departLane="168_4way_87to4way_77_0" departPos="5.10" departSpeed="0.00" departDelay="0.78" arrival="70.00" arrivalLane="165_4way_77to4way_76_0" arrivalPos="85.60" arrivalSpeed="5.02" duration="27.00" routeLength="175.13" waitingTime="4.00" waitingCount="1" stopTime="0.00" timeLoss="14.69" rerouteNo="0" devices="tripinfo_190" vType="DEFAULT_VEHTYPE" speedFactor="1.08" vaporized=""/>
    <tripinfo id="202" depart="45.00" departLane="68_4way_22to4way_12_0" departPos="5.10" departSpeed="0.00" departDelay="0.12" arrival="70.00" arrivalLane="10_4way_12to3way_2_0" arrivalPos="85.60" arrivalSpeed="5.57" duration="25.00" routeLength="180.50" waitingTime="3.00" waitingCount="1" stopTime="0.00" timeLoss="10.38" rerouteNo="0" devices="tripinfo_202" vType="DEFAULT_VEHTYPE" speedFactor="0.90" vaporized=""/>
    <tripinfo id="214" depart="48.00" departLane="68_4way_12to4way_22_0" departPos="5.10" departSpeed="0.00" departDelay="0.45" arrival="70.00" arrivalLane="82_4way_22to4way_23_0" arrivalPos="85.60" arrivalSpeed="4.93" duration="22.00" routeLength="175.13" waitingTime="0.00" waitingCount="0" stopTime="0.00" timeLoss="8.80" rerouteNo="0" devices="tripinfo_214" vType="DEFAULT_VEHTYPE" speedFactor="1.00" vaporized=""/>
    <tripinfo id="268" depart="60.00" departLane="72_4way_14to4way_24_0" departPos="5.10" departSpeed="0.00" departDelay="0.45" arrival="70.00" arrivalLane="72_4way_14to4way_24_0" arrivalPos="85.60" arrivalSpeed="16.10" duration="10.00" routeLength="80.50" waitingTime="0.00" waitingCount="0" stopTime="0.00" timeLoss="4.35" rerouteNo="0" devices="tripinfo_268" vType="DEFAULT_VEHTYPE" speedFactor="1.22" vaporized=""/>
    <tripinfo id="24" depart="6.00" departLane="98_4way_32to4way_42_0" departPos="5.10" departSpeed="0.00" departDelay="0.67" arrival="73.00" arrivalLane="157_4way_72to4way_73_0" arrivalPos="85.60" arrivalSpeed="7.08" duration="67.00" routeLength="475.13" waitingTime="20.00" waitingCount="1" stopTime="0.00" timeLoss="31.18" rerouteNo="0" devices="tripinfo_24" vType="DEFAULT_VEHTYPE" speedFactor="0.97" vaporized=""/>
    <tripinfo id="201" depart="47.00" departLane="22_3way_4to4way_14_0" departPos="5.10" departSpeed="0.00" departDelay="2.34" arrival="73.00" arrivalLane="87_4way_24to4way_34_0" arrivalPos="85.60" arrivalSpeed="11.80" duration="26.00" routeLength="280.50" waitingTime="0.00" waitingCount="0" stopTime="0.00" timeLoss="4.28" rerouteNo="0" devices="tripinfo_201" vType="DEFAULT_VEHTYPE" speedFactor="0.93" vaporized=""/>
    <tripinfo id="5" depart="2.00" departLane="100_4way_33to4way_43_0" departPos="5.10" departSpeed="0.00" departDelay="0.89" arrival="77.00" arrivalLane="133_4way_55to4way_56_0" arrivalPos="85.60" arrivalSpeed="12.42" duration="75.00" routeLength="475.13" waitingTime="25.00" waitingCount="1" stopTime="0.00" timeLoss="37.51" rerouteNo="0" devices="tripinfo_5" vType="DEFAULT_VEHTYPE" speedFactor="0.94" vaporized=""/>
    <tripinfo id="10" depart="3.00" departLane="136_4way_56to4way_66_0" departPos="5.10" departSpeed="0.00" departDelay="0.78" arrival="77.00" arrivalLane="152_4way_67to4way_68_0" arrivalPos="85.60" arrivalSpeed="13.41" duration="74.00" routeLength="275.13" waitingTime="43.00" waitingCount="1" stopTime="0.00" timeLoss="54.04" rerouteNo="0" devices="tripinfo_10" vType="DEFAULT_VEHTYPE" speedFactor="1.04" vaporized=""/>
    <tripinfo id="47" depart="11.00" departLane="10_3way_2to4way_12_0" departPos="5.10" departSpeed="0.00" departDelay="0.56" arrival="77.00" arrivalLane="69_4way_13to4way_14_0" arrivalPos="85.60" arrivalSpeed="12.18" duration="66.00" routeLength="275.13" waitingTime="33.00" waitingCount="1" stopTime="0.00" timeLoss="42.66" rerouteNo="0" devices="tripinfo_47" vType="DEFAULT_VEHTYPE" speedFactor="0.90" vaporized=""/>
    <tripinfo id="67" depart="15.00" departLane="159_4way_74to4way_73_0" departPos="5.10" departSpeed="0.00" departDelay="0.11" arrival="77.00" arrivalLane="160_4way_73to4way_83_0" arrivalPos="85.60" arrivalSpeed="11.53" duration="62.00" routeLength="175.13" waitingTime="40.00" waitingCount="1" stopTime="0.00" timeLoss="46.86" rerouteNo="0" devices="tripinfo_67" vType="DEFAULT_VEHTYPE" speedFactor="0.88" vaporized=""/>
    <tripinfo id="82" depart="19.00" departLane="81_4way_31to4way_21_0" departPos="5.10" departSpeed="0.00" departDelay="0.78" arrival="77.00" arrivalLane="2_3way_1to3way_2_0" arrivalPos="85.60" arrivalSpeed="13.03" duration="58.00" routeLength="380.29" waitingTime="19.00" waitingCount="1" stopTime="0.00" timeLoss="29.68" rerouteNo="0" devices="tripinfo_82" vType="DEFAULT_VEHTYPE" speedFactor="0.99" vaporized=""/>
    <tripinfo id="227" depart="51.00" departLane="30_4way_51to3way_50_0" departPos="5.10" departSpeed="0.00" departDelay="0.56" arrival="77.00" arrivalLane="29_3way_50to3way_60_0" arrivalPos="85.60" arrivalSpeed="13.26" duration="26.00" routeLength="175.13" waitingTime="4.00" waitingCount="1" stopTime="0.00" timeLoss="12.44" rerouteNo="0" devices="tripinfo_227" vType="DEFAULT_VEHTYPE" speedFactor="1.00" vaporized=""/>
    <tripinfo id="74" depart="17.00" departLane="123_4way_47to4way_57_0" departPos="5.10" departSpeed="0.00" departDelay="0.56" arrival="78.00" arrivalLane="44_4way_78to3way_79_0" arrivalPos="85.60" arrivalSpeed="10.26" duration="61.00" routeLength="475.13" waitingTime="7.00" waitingCount="1" stopTime="0.00" timeLoss="17.30" rerouteNo="0" devices="tripinfo_74" vType="DEFAULT_VEHTYPE" speedFactor="0.81" vaporized=""/>
    <tripinfo id="119" depart="27.00" departLane="19_3way_49to3way_39_0" departPos="5.10" departSpeed="0.00" departDelay="0.56" arrival="78.00" arrivalLane="107_4way_38to4way_37_0" arrivalPos="85.60" arrivalSpeed="11.91" duration="51.00" routeLength="275.13" waitingTime="17.00" waitingCount="1" stopTime="0.00" timeLoss="27.33" rerouteNo="0" devices="tripinfo_119" vType="DEFAULT_VEHTYPE" speedFactor="0.90" vaporized=""/>
    <tripinfo id="174" depart="39.00" departLane="67_4way_13to4way_12_0" departPos="5.10" departSpeed="0.00" departDelay="0.34" arrival="78.00" arrivalLane="68_4way_12to4way_22_0" arrivalPos="85.60" arrivalSpeed="12.06" duration="39.00" routeLength="175.13" waitingTime="16.00" waitingCount="1" stopTime="0.00" timeLoss="24.49" rerouteNo="0" devices="tripinfo_174" vType="DEFAULT_VEHTYPE" speedFactor="0.94" vaporized=""/>
    <tripinfo id="33" depart="8.00" departLane="6_3way_29to3way_19_0" departPos="5.10" departSpeed="0.00" departDelay="0.67" arrival="79.00" arrivalLane="77_4way_18to4way_17_0" arrivalPos="85.60" arrivalSpeed="13.70" duration="71.00" routeLength="275.13" waitingTime="38.00" waitingCount="1" stopTime="0.00" timeLoss="51.58" rerouteNo="0" devices="tripinfo_33" vType="DEFAULT_VEHTYPE" speedFactor="1.06" vaporized=""/>
    <tripinfo id="58" depart="13.00" departLane="104_4way_35to4way_45_0" departPos="5.10" departSpeed="0.00" departDelay="0.11" arrival="80.00" arrivalLane="135_4way_56to4way_57_0" arrivalPos="85.60" arrivalSpeed="12.93" duration="67.00" routeLength="375.13" waitingTime="25.00" waitingCount="1" stopTime="0.00" timeLoss="36.82" rerouteNo="0" devices="tripinfo_58" vType="DEFAULT_VEHTYPE" speedFactor="0.93" vaporized=""/>
    <tripinfo id="198" depart="44.00" departLane="20_4way_38to3way_39_0" departPos="5.10" departSpeed="0.00" departDelay="0.00" arrival="80.00" arrivalLane="13_3way_39to3way_29_0" arrivalPos="85.60" arrivalSpeed="11.92" duration="36.00" routeLength="175.13" waitingTime="12.00" waitingCount="1" stopTime="0.00" timeLoss="20.26" rerouteNo="0" devices="tripinfo_198" vType="DEFAULT_VEHTYPE" speedFactor="0.87" vaporized=""/>
    <tripinfo id="220" depart="49.00" departLane="167_4way_78to4way_77_0" departPos="5.10" departSpeed="0.00" departDelay="0.12" arrival="80.00" arrivalLane="165_4way_77to4way_76_0" arrivalPos="85.60" arrivalSpeed="12.18" duration="31.00" routeLength="180.50" waitingTime="7.00" waitingCount="1" stopTime="0.00" timeLoss="16.11" rerouteNo="0" devices="tripinfo_220" vType="DEFAULT_VEHTYPE" speedFactor="0.92" vaporized=""/>
    <tripinfo id="271" depart="62.00" departLane="65_4way_11to4way_12_0" departPos="5.10" departSpeed="0.00" departDelay="1.78" arrival="80.00" arrivalLane="67_4way_12to4way_13_0" arrivalPos="85.60" arrivalSpeed="12.44" duration="18.00" routeLength="180.50" waitingTime="0.00" waitingCount="0" stopTime="0.00" timeLoss="3.51" rerouteNo="0" devices="tripinfo_271" vType="DEFAULT_VEHTYPE" speedFactor="0.90" vaporized=""/>
    <tripinfo id="309" depart="71.00" departLane="152_4way_67to4way_68_0" departPos="5.10" departSpeed="0.00" departDelay="2.34" arrival="80.00" arrivalLane="152_4way_67to4way_68_0" arrivalPos="85.60" arrivalSpeed="15.30" duration="9.00" routeLength="80.50" waitingTime="0.00" waitingCount="0" stopTime="0.00" timeLoss="3.43" rerouteNo="0" devices="tripinfo_309" vType="DEFAULT_VEHTYPE" speedFactor="1.12" vaporized=""/>
    <tripinfo id="315" depart="72.00" departLane="19_3way_39to3way_49_0" departPos="5.10" departSpeed="0.00" departDelay="2.01" arrival="82.00" arrivalLane="19_3way_39to3way_49_0" arrivalPos="85.60" arrivalSpeed="11.60" duration="10.00" routeLength="80.50" waitingTime="0.00" waitingCount="0" stopTime="0.00" timeLoss="2.89" rerouteNo="0" devices="tripinfo_315" vType="DEFAULT_VEHTYPE" speedFactor="0.93" vaporized=""/>
    <tripinfo id="186" depart="46.00" departLane="137_4way_58to4way_57_0" departPos="5.10" departSpeed="0.00" departDelay="4.67" arrival="83.00" arrivalLane="135_4way_57to4way_56_0" arrivalPos="85.60" arrivalSpeed="11.61" duration="37.00" routeLength="180.50" waitingTime="14.00" waitingCount="1" stopTime="0.00" timeLoss="22.06" rerouteNo="0" devices="tripinfo_186" vType="DEFAULT_VEHTYPE" speedFactor="0.87" vaporized=""/>
    <tripinfo id="17" depart="4.00" departLane="102_4way_44to4way_34_0" departPos="5.10" departSpeed="0.00" departDelay="0.22" arrival="84.00" arrivalLane="9_3way_3to3way_2_0" arrivalPos="85.60" arrivalSpeed="14.34" duration="80.00" routeLength="575.13" waitingTime="28.00" waitingCount="1" stopTime="0.00" timeLoss="38.92" rerouteNo="0" devices="tripinfo_17" vType="DEFAULT_VEHTYPE" speedFactor="1.04" vaporized=""/>
    <tripinfo id="61" depart="17.00" departLane="87_4way_34to4way_24_0" departPos="5.10" departSpeed="0.00" departDelay="3.45" arrival="84.00" arrivalLane="67_4way_13to4way_12_0" arrivalPos="85.60" arrivalSpeed="13.87" duration="67.00" routeLength="375.13" waitingTime="26.00" waitingCount="1" stopTime="0.00" timeLoss="38.80" rerouteNo="0" devices="tripinfo_61" vType="DEFAULT_VEHTYPE" speedFactor="1.01" vaporized=""/>
    <tripinfo id="68" depart="18.00" departLane="83_4way_22to4way_32_0" departPos="5.10" departSpeed="0.00" departDelay="2.89" arrival="84.00" arrivalLane="159_4way_73to4way_74_0" arrivalPos="85.60" arrivalSpeed="15.03" duration="66.00" routeLength="675.13" waitingTime="4.00" waitingCount="1" stopTime="0.00" timeLoss="20.64" rerouteNo="0" devices="tripinfo_68" vType="DEFAULT_VEHTYPE" speedFactor="1.09" vaporized=""/>
    <tripinfo id="322" depart="74.00" departLane="171_4way_83to4way_82_0" departPos="5.10" departSpeed="0.00" departDelay="2.45" arrival="84.00" arrivalLane="171_4way_83to4way_82_0" arrivalPos="85.60" arrivalSpeed="14.30" duration="10.00" routeLength="80.50" waitingTime="0.00" waitingCount="0" stopTime="0.00" timeLoss="3.72" rerouteNo="0" devices="tripinfo_322" vType="DEFAULT_VEHTYPE" speedFactor="1.08" vaporized=""/>
    <tripinfo id="191" depart="43.00" departLane="43_3way_89to3way_79_0" departPos="5.10" departSpeed="0.00" departDelay="0.56" arrival="85.00" arrivalLane="165_4way_77to4way_76_0" arrivalPos="85.60" arrivalSpeed="12.09" duration="42.00" routeLength="375.13" waitingTime="2.00" waitingCount="1" stopTime="0.00" timeLoss="12.89" rerouteNo="0" devices="tripinfo_191" vType="DEFAULT_VEHTYPE" speedFactor="0.94" vaporized=""/>
    <tripinfo id="317" depart="76.00" departLane="92_4way_28to4way_27_0" departPos="5.10" departSpeed="0.00" departDelay="5.56" arrival="85.00" arrivalLane="92_4way_28to4way_27_0" arrivalPos="85.60" arrivalSpeed="14.20" duration="9.00" routeLength="80.50" waitingTime="0.00" waitingCount="0" stopTime="0.00" timeLoss="3.69" rerouteNo="0" devices="tripinfo_317" vType="DEFAULT_VEHTYPE" speedFactor="1.11" vaporized=""/>
    <tripinfo id="94" depart="21.00" departLane="57_3way_94to4way_84_0" departPos="5.10" departSpeed="0.00" departDelay="0.11" arrival="86.00" arrivalLane="155_4way_72to4way_71_0" arrivalPos="85.60" arrivalSpeed="14.60" duration="65.00" routeLength="475.13" waitingTime="19.00" waitingCount="1" stopTime="0.00" timeLoss="32.25" rerouteNo="0" devices="tripinfo_94" vType="DEFAULT_VEHTYPE" speedFactor="1.08" vaporized=""/>
    <tripinfo id="19" depart="5.00" departLane="89_4way_25to4way_35_0" departPos="5.10" departSpeed="0.00" departDelay="0.78" arrival="87.00" arrivalLane="107_4way_37to4way_38_0" arrivalPos="85.60" arrivalSpeed="12.00" duration="82.00" routeLength="375.13" waitingTime="38.00" waitingCount="1" stopTime="0.00" timeLoss="49.86" rerouteNo="0" devices="tripinfo_19" vType="DEFAULT_VEHTYPE" speedFactor="0.89" vaporized=""/>
    <tripinfo id="147" depart="33.00" departLane="107_4way_37to4way_38_0" departPos="5.10" departSpeed="0.00" departDelay="0.34" arrival="87.00" arrivalLane="13_3way_39to3way_29_0" arrivalPos="85.60" arrivalSpeed="12.94" duration="54.00" routeLength="275.13" waitingTime="21.00" waitingCount="1" stopTime="0.00" timeLoss="32.23" rerouteNo="0" devices="tripinfo_147" vType="DEFAULT_VEHTYPE" speedFactor="0.97" vaporized=""/>
    <tripinfo id="262" depart="59.00" departLane="65_4way_11to4way_12_0" departPos="5.10" departSpeed="0.00" departDelay="0.78" arrival="87.00" arrivalLane="16_4way_13to3way_3_0" arrivalPos="85.60" arrivalSpeed="12.12" duration="28.00" routeLength="275.13" waitingTime="0.00" waitingCount="0" stopTime="0.00" timeLoss="4.97" rerouteNo="0" devices="tripinfo_262" vType="DEFAULT_VEHTYPE" speedFactor="0.93" vaporized=""/>
    <tripinfo id="41" depart="10.00" departLane="42_3way_70to4way_71_0" departPos="5.10" departSpeed="0.00" departDelay="0.89" arrival="88.00" arrivalLane="157_4way_72to4way_73_0" arrivalPos="85.60" arrivalSpeed="14.40" duration="78.00" routeLength="280.50" waitingTime="44.00" waitingCount="1" stopTime="0.00" timeLoss="59.32" rerouteNo="0" devices="tripinfo_41" vType="DEFAULT_VEHTYPE" speedFactor="1.12" vaporized=""/>
    <tripinfo id="275" depart="62.00" departLane="51_4way_81to3way_91_0" departPos="5.10" departSpeed="0.00" departDelay="0.89" arrival="89.00" arrivalLane="52_3way_92to3way_93_0" arrivalPos="85.60" arrivalSpeed="13.58" duration="27.00" routeLength="275.13" waitingTime="0.00" waitingCount="0" stopTime="0.00" timeLoss="6.66" rerouteNo="0" devices="tripinfo_275" vType="DEFAULT_VEHTYPE" speedFactor="1.02" vaporized=""/>
    <tripinfo id="73" depart="17.00" departLane="169_4way_88to4way_78_0" departPos="5.10" departSpeed="0.00" departDelay="0.78" arrival="90.00" arrivalLane="133_4way_56to4way_55_0" arrivalPos="85.60" arrivalSpeed="13.39" duration="73.00" routeLength="575.13" waitingTime="15.00" waitingCount="1" stopTime="0.00" timeLoss="29.47" rerouteNo="0" devices="tripinfo_73" vType="DEFAULT_VEHTYPE" speedFactor="0.98" vaporized=""/>
    <tripinfo id="114" depart="26.00" departLane="57_3way_94to4way_84_0" departPos="5.10" departSpeed="0.00" departDelay="0.67" arrival="91.00" arrivalLane="47_4way_81to3way_80_0" arrivalPos="85.60" arrivalSpeed="14.48" duration="65.00" routeLength="475.13" waitingTime="20.00" waitingCount="1" stopTime="0.00" timeLoss="31.66" rerouteNo="0" devices="tripinfo_114" vType="DEFAULT_VEHTYPE" speedFactor="1.06" vaporized=""/>