<?xml version="1.0" encoding="UTF-8"?>

<!-- generated on 2023-08-08 13:52:02 by Eclipse SUMO sumo Version 1.12.0
<configuration xmlns:xsi="http://www.w3.org/2001/XMLSchema-instance" xsi:noNamespaceSchemaLocation="http://sumo.dlr.de/xsd/sumoConfiguration.xsd">

    <input>
        <net-file value="../../data_generation/sq.net.xml"/>
        <route-files value="../../data_generation/sq.rou.xml"/>
    </input>

    <output>
        <tripinfo-output value="tripinfo.xml"/>
        <statistic-output value="statistic.xml"/>
    </output>

    <time>
        <begin value="0"/>
        <end value="3600"/>
    </time>

    <processing>
        <time-to-teleport value="-1"/>
    </processing>

    <traci_server>
        <remote-port value="54003"/>
    </traci_server>

    <random_number>
        <seed value="1395"/>
    </random_number>

    <gui_only>
        <gui-settings-file value="../../data_generation/view_HY_0402.xml"/>
    </gui_only>

</configuration>
-->

<tripinfos xmlns:xsi="http://www.w3.org/2001/XMLSchema-instance" xsi:noNamespaceSchemaLocation="http://sumo.dlr.de/xsd/tripinfo_file.xsd">
    <tripinfo id="22" depart="2.00" departLane="478_4way_291to4way_271_0" departPos="5.10" departSpeed="0.00" departDelay="0.43" arrival="12.00" arrivalLane="478_4way_291to4way_271_0" arrivalPos="85.60" arrivalSpeed="13.10" duration="10.00" routeLength="80.50" waitingTime="0.00" waitingCount="0" stopTime="0.00" timeLoss="3.35" rerouteNo="0" devices="tripinfo_22" vType="DEFAULT_VEHTYPE" speedFactor="1.00" vaporized=""/>
    <tripinfo id="9" depart="1.00" departLane="733_4way_76to4way_75_0" departPos="5.10" departSpeed="0.00" departDelay="0.36" arrival="19.00" arrivalLane="731_4way_75to4way_74_0" arrivalPos="85.60" arrivalSpeed="11.32" duration="18.00" routeLength="180.50" waitingTime="0.00" waitingCount="0" stopTime="0.00" timeLoss="3.34" rerouteNo="0" devices="tripinfo_9" vType="DEFAULT_VEHTYPE" speedFactor="0.91" vaporized=""/>
    <tripinfo id="160" depart="12.00" departLane="90_3way_382to4way_362_0" departPos="5.10" departSpeed="0.00" departDelay="0.58" arrival="22.00" arrivalLane="90_3way_382to4way_362_0" arrivalPos="85.60" arrivalSpeed="11.91" duration="10.00" routeLength="80.50" waitingTime="0.00" waitingCount="0" stopTime="0.00" timeLoss="2.64" rerouteNo="0" devices="tripinfo_160" vType="DEFAULT_VEHTYPE" speedFactor="0.88" vaporized=""/>
    <tripinfo id="167" depart="12.00" departLane="697_4way_54to4way_74_0" departPos="5.10" departSpeed="0.00" departDelay="0.08" arrival="22.00" arrivalLane="697_4way_54to4way_74_0" arrivalPos="85.60" arrivalSpeed="11.66" duration="10.00" routeLength="80.50" waitingTime="0.00" waitingCount="0" stopTime="0.00" timeLoss="2.96" rerouteNo="0" devices="tripinfo_167" vType="DEFAULT_VEHTYPE" speedFactor="0.85" vaporized=""/>
    <tripinfo id="18" depart="5.00" departLane="359_4way_230to4way_210_0" departPos="5.10" departSpeed="0.00" departDelay="3.71" arrival="23.00" arrivalLane="322_4way_210to4way_190_0" arrivalPos="85.60" arrivalSpeed="12.05" duration="18.00" routeLength="180.50" waitingTime="0.00" waitingCount="0" stopTime="0.00" timeLoss="3.64" rerouteNo="0" devices="tripinfo_18" vType="DEFAULT_VEHTYPE" speedFactor="0.96" vaporized=""/>
    <tripinfo id="198" depart="15.00" departLane="540_4way_324to4way_304_0" departPos="5.10" departSpeed="0.00" departDelay="0.86" arrival="25.00" arrivalLane="540_4way_324to4way_304_0" arrivalPos="85.60" arrivalSpeed="11.52" duration="10.00" routeLength="80.50" waitingTime="0.00" waitingCount="0" stopTime="0.00" timeLoss="2.97" rerouteNo="0" devices="tripinfo_198" vType="DEFAULT_VEHTYPE" speedFactor="0.87" vaporized=""/>
    <tripinfo id="303" depart="22.00" departLane="148_4way_102to4way_103_0" departPos="5.10" departSpeed="0.00" departDelay="0.37" arrival="32.00" arrivalLane="148_4way_102to4way_103_0" arrivalPos="85.60" arrivalSpeed="13.10" duration="10.00" routeLength="80.50" waitingTime="0.00" waitingCount="0" stopTime="0.00" timeLoss="3.92" rerouteNo="0" devices="tripinfo_303" vType="DEFAULT_VEHTYPE" speedFactor="1.02" vaporized=""/>
    <tripinfo id="332" depart="24.00" departLane="542_4way_305to4way_325_0" departPos="5.10" departSpeed="0.00" departDelay="0.29" arrival="34.00" arrivalLane="542_4way_305to4way_325_0" arrivalPos="85.60" arrivalSpeed="10.33" duration="10.00" routeLength="80.50" waitingTime="0.00" waitingCount="0" stopTime="0.00" timeLoss="2.94" rerouteNo="0" devices="tripinfo_332" vType="DEFAULT_VEHTYPE" speedFactor="0.83" vaporized=""/>
    <tripinfo id="326" depart="24.00" departLane="18_3way_120to4way_121_0" departPos="5.10" departSpeed="0.00" departDelay="0.72" arrival="41.00" arrivalLane="198_4way_121to4way_122_0" arrivalPos="85.60" arrivalSpeed="13.31" duration="17.00" routeLength="180.50" waitingTime="0.00" waitingCount="0" stopTime="0.00" timeLoss="3.89" rerouteNo="0" devices="tripinfo_326" vType="DEFAULT_VEHTYPE" speedFactor="1.00" vaporized=""/>
    <tripinfo id="203" depart="15.00" departLane="708_4way_62to4way_82_0" departPos="5.10" departSpeed="0.00" departDelay="0.51" arrival="42.00" arrivalLane="742_4way_83to4way_84_0" arrivalPos="85.60" arrivalSpeed="12.60" duration="27.00" routeLength="275.13" waitingTime="0.00" waitingCount="0" stopTime="0.00" timeLoss="4.89" rerouteNo="0" devices="tripinfo_203" vType="DEFAULT_VEHTYPE" speedFactor="0.95" vaporized=""/>
    <tripinfo id="324" depart="24.00" departLane="120_3way_396to4way_376_0" departPos="5.10" departSpeed="0.00" departDelay="0.87" arrival="42.00" arrivalLane="666_4way_376to4way_375_0" arrivalPos="85.60" arrivalSpeed="14.23" duration="18.00" routeLength="175.13" waitingTime="0.00" waitingCount="0" stopTime="0.00" timeLoss="5.08" rerouteNo="0" devices="tripinfo_324" vType="DEFAULT_VEHTYPE" speedFactor="1.05" vaporized=""/>
    <tripinfo id="445" depart="33.00" departLane="465_4way_267to4way_266_0" departPos="5.10" departSpeed="0.00" departDelay="1.23" arrival="42.00" arrivalLane="465_4way_267to4way_266_0" arrivalPos="85.60" arrivalSpeed="13.65" duration="9.00" routeLength="80.50" waitingTime="0.00" waitingCount="0" stopTime="0.00" timeLoss="3.25" rerouteNo="0" devices="tripinfo_445" vType="DEFAULT_VEHTYPE" speedFactor="1.02" vaporized=""/>
    <tripinfo id="416" depart="30.00" departLane="551_4way_31to4way_32_0" departPos="5.10" departSpeed="0.00" departDelay="0.30" arrival="47.00" arrivalLane="570_4way_32to4way_33_0" arrivalPos="85.60" arrivalSpeed="13.70" duration="17.00" routeLength="180.50" waitingTime="0.00" waitingCount="0" stopTime="0.00" timeLoss="4.29" rerouteNo="0" devices="tripinfo_416" vType="DEFAULT_VEHTYPE" speedFactor="1.04" vaporized=""/>
    <tripinfo id="149" depart="11.00" departLane="739_4way_78to4way_98_0" departPos="5.10" departSpeed="0.00" departDelay="0.36" arrival="53.00" arrivalLane="267_4way_158to4way_178_0" arrivalPos="85.60" arrivalSpeed="12.70" duration="42.00" routeLength="480.50" waitingTime="0.00" waitingCount="0" stopTime="0.00" timeLoss="5.13" rerouteNo="0" devices="tripinfo_149" vType="DEFAULT_VEHTYPE" speedFactor="0.95" vaporized=""/>
    <tripinfo id="531" depart="38.00" departLane="124_3way_5to3way_4_0" departPos="5.10" departSpeed="0.00" departDelay="0.09" arrival="54.00" arrivalLane="69_3way_4to3way_3_0" arrivalPos="85.60" arrivalSpeed="14.89" duration="16.00" routeLength="180.50" waitingTime="0.00" waitingCount="0" stopTime="0.00" timeLoss="3.91" rerouteNo="0" devices="tripinfo_531" vType="DEFAULT_VEHTYPE" speedFactor="1.11" vaporized=""/>
    <tripinfo id="610" depart="44.00" departLane="413_4way_238to4way_258_0" departPos="5.10" departSpeed="0.00" departDelay="0.45" arrival="54.00" arrivalLane="413_4way_238to4way_258_0" arrivalPos="85.60" arrivalSpeed="12.68" duration="10.00" routeLength="80.50" waitingTime="0.00" waitingCount="0" stopTime="0.00" timeLoss="3.11" rerouteNo="0" devices="tripinfo_610" vType="DEFAULT_VEHTYPE" speedFactor="0.93" vaporized=""/>
    <tripinfo id="341" depart="25.00" departLane="730_4way_93to4way_73_0" departPos="5.10" departSpeed="0.00" departDelay="0.65" arrival="63.00" arrivalLane="15_3way_13to3way_12_0" arrivalPos="85.60" arrivalSpeed="14.50" duration="38.00" routeLength="475.13" waitingTime="0.00" waitingCount="0" stopTime="0.00" timeLoss="6.32" rerouteNo="0" devices="tripinfo_341" vType="DEFAULT_VEHTYPE" speedFactor="1.12" vaporized=""/>
    <tripinfo id="533" depart="39.00" departLane="14_4way_118to3way_119_0" departPos="5.10" departSpeed="0.00" departDelay="0.94" arrival="64.00" arrivalLane="138_3way_99to3way_79_0" arrivalPos="85.60" arrivalSpeed="14.45" duration="25.00" routeLength="275.13" waitingTime="0.00" waitingCount="0" stopTime="0.00" timeLoss="6.06" rerouteNo="0" devices="tripinfo_533" vType="DEFAULT_VEHTYPE" speedFactor="1.09" vaporized=""/>
    <tripinfo id="732" depart="53.00" departLane="633_4way_351to4way_352_0" departPos="5.10" departSpeed="0.00" departDelay="0.73" arrival="68.00" arrivalLane="635_4way_352to4way_353_0" arrivalPos="85.60" arrivalSpeed="16.85" duration="15.00" routeLength="180.50" waitingTime="0.00" waitingCount="0" stopTime="0.00" timeLoss="4.15" rerouteNo="0" devices="tripinfo_732" vType="DEFAULT_VEHTYPE" speedFactor="1.22" vaporized=""/>
    <tripinfo id="51" depart="4.00" departLane="756_4way_98to4way_97_0" departPos="5.10" departSpeed="0.00" departDelay="0.36" arrival="70.00" arrivalLane="752_4way_94to4way_93_0" arrivalPos="85.60" arrivalSpeed="6.02" duration="66.00" routeLength="480.50" waitingTime="9.00" waitingCount="1" stopTime="0.00" timeLoss="19.16" rerouteNo="0" devices="tripinfo_51" vType="DEFAULT_VEHTYPE" speedFactor="0.74" vaporized=""/>
    <tripinfo id="118" depart="9.00" departLane="745_4way_87to4way_86_0" departPos="5.10" departSpeed="0.00" departDelay="0.57" arrival="70.00" arrivalLane="159_4way_85to4way_105_0" arrivalPos="85.60" arrivalSpeed="6.12" duration="61.00" routeLength="275.13" waitingTime="30.00" waitingCount="1" stopTime="0.00" timeLoss="40.89" rerouteNo="0" devices="tripinfo_118" vType="DEFAULT_VEHTYPE" speedFactor="1.05" vaporized=""/>
    <tripinfo id="318" depart="23.00" departLane="109_3way_392to3way_391_0" departPos="5.10" departSpeed="0.00" departDelay="0.29" arrival="70.00" arrivalLane="101_3way_389to3way_388_0" arrivalPos="85.60" arrivalSpeed="5.51" duration="47.00" routeLength="380.50" waitingTime="9.00" waitingCount="1" stopTime="0.00" timeLoss="19.90" rerouteNo="0" devices="tripinfo_318" vType="DEFAULT_VEHTYPE" speedFactor="1.01" vaporized=""/>
    <tripinfo id="452" depart="33.00" departLane="755_4way_97to4way_96_0" departPos="5.10" departSpeed="0.00" departDelay="0.73" arrival="71.00" arrivalLane="192_4way_96to4way_116_0" arrivalPos="85.60" arrivalSpeed="6.04" duration="38.00" routeLength="175.13" waitingTime="14.00" waitingCount="1" stopTime="0.00" timeLoss="25.14" rerouteNo="0" devices="tripinfo_452" vType="DEFAULT_VEHTYPE" speedFactor="1.09" vaporized=""/>
    <tripinfo id="664" depart="48.00" departLane="702_4way_57to4way_58_0" departPos="5.10" departSpeed="0.00" departDelay="0.59" arrival="72.00" arrivalLane="40_4way_38to3way_18_0" arrivalPos="85.60" arrivalSpeed="15.40" duration="24.00" routeLength="275.13" waitingTime="0.00" waitingCount="0" stopTime="0.00" timeLoss="6.43" rerouteNo="0" devices="tripinfo_664" vType="DEFAULT_VEHTYPE" speedFactor="1.17" vaporized=""/>
    <tripinfo id="351" depart="26.00" departLane="73_3way_339to3way_319_0" departPos="5.10" departSpeed="0.00" departDelay="0.94" arrival="73.00" arrivalLane="67_3way_319to3way_299_0" arrivalPos="85.60" arrivalSpeed="8.07" duration="47.00" routeLength="180.50" waitingTime="22.00" waitingCount="1" stopTime="0.00" timeLoss="31.29" rerouteNo="0" devices="tripinfo_351" vType="DEFAULT_VEHTYPE" speedFactor="0.85" vaporized=""/>
    <tripinfo id="284" depart="21.00" departLane="196_4way_138to4way_118_0" departPos="5.10" departSpeed="0.00" departDelay="0.72" arrival="74.00" arrivalLane="187_4way_116to4way_115_0" arrivalPos="85.60" arrivalSpeed="8.12" duration="53.00" routeLength="375.13" waitingTime="16.00" waitingCount="1" stopTime="0.00" timeLoss="28.37" rerouteNo="0" devices="tripinfo_284" vType="DEFAULT_VEHTYPE" speedFactor="1.12" vaporized=""/>
    <tripinfo id="906" depart="65.00" departLane="669_4way_58to4way_38_0" departPos="5.10" departSpeed="0.00" departDelay="0.31" arrival="75.00" arrivalLane="669_4way_58to4way_38_0" arrivalPos="85.60" arrivalSpeed="11.98" duration="10.00" routeLength="80.50" waitingTime="0.00" waitingCount="0" stopTime="0.00" timeLoss="3.27" rerouteNo="0" devices="tripinfo_906" vType="DEFAULT_VEHTYPE" speedFactor="0.95" vaporized=""/>
    <tripinfo id="27" depart="2.00" departLane="41_3way_180to3way_200_0" departPos="5.10" departSpeed="0.00" departDelay="0.07" arrival="76.00" arrivalLane="54_3way_220to4way_221_0" arrivalPos="85.60" arrivalSpeed="13.32" duration="74.00" routeLength="275.13" waitingTime="45.00" waitingCount="1" stopTime="0.00" timeLoss="54.31" rerouteNo="0" devices="tripinfo_27" vType="DEFAULT_VEHTYPE" speedFactor="1.03" vaporized=""/>
    <tripinfo id="429" depart="31.00" departLane="615_4way_344to4way_343_0" departPos="5.10" departSpeed="0.00" departDelay="0.37" arrival="76.00" arrivalLane="80_4way_341to3way_340_0" arrivalPos="85.60" arrivalSpeed="15.69" duration="45.00" routeLength="380.50" waitingTime="12.00" waitingCount="1" stopTime="0.00" timeLoss="21.41" rerouteNo="0" devices="tripinfo_429" vType="DEFAULT_VEHTYPE" speedFactor="1.16" vaporized=""/>
    <tripinfo id="138" depart="10.00" departLane="406_4way_234to4way_254_0" departPos="5.10" departSpeed="0.00" departDelay="0.15" arrival="77.00" arrivalLane="487_4way_276to4way_277_0" arrivalPos="85.60" arrivalSpeed="13.26" duration="67.00" routeLength="475.13" waitingTime="20.00" waitingCount="1" stopTime="0.00" timeLoss="31.75" rerouteNo="0" devices="tripinfo_138" vType="DEFAULT_VEHTYPE" speedFactor="1.00" vaporized=""/>
    <tripinfo id="258" depart="19.00" departLane="342_4way_204to4way_203_0" departPos="5.10" departSpeed="0.00" departDelay="0.58" arrival="77.00" arrivalLane="338_4way_202to4way_201_0" arrivalPos="85.60" arrivalSpeed="14.78" duration="58.00" routeLength="280.50" waitingTime="28.00" waitingCount="1" stopTime="0.00" timeLoss="39.49" rerouteNo="0" devices="tripinfo_258" vType="DEFAULT_VEHTYPE" speedFactor="1.12" vaporized=""/>
    <tripinfo id="360" depart="26.00" departLane="298_4way_177to4way_176_0" departPos="5.10" departSpeed="0.00" departDelay="0.30" arrival="77.00" arrivalLane="328_4way_193to4way_213_0" arrivalPos="85.60" arrivalSpeed="13.61" duration="51.00" routeLength="575.13" waitingTime="0.00" waitingCount="0" stopTime="0.00" timeLoss="8.26" rerouteNo="0" devices="tripinfo_360" vType="DEFAULT_VEHTYPE" speedFactor="1.01" vaporized=""/>
    <tripinfo id="596" depart="43.00" departLane="679_4way_65to4way_45_0" departPos="5.10" departSpeed="0.00" departDelay="0.45" arrival="77.00" arrivalLane="674_4way_44to4way_43_0" arrivalPos="85.60" arrivalSpeed="15.34" duration="34.00" routeLength="275.13" waitingTime="3.00" waitingCount="1" stopTime="0.00" timeLoss="15.00" rerouteNo="0" devices="tripinfo_596" vType="DEFAULT_VEHTYPE" speedFactor="1.12" vaporized=""/>
    <tripinfo id="388" depart="28.00" departLane="582_4way_327to4way_326_0" departPos="5.10" departSpeed="0.00" departDelay="0.30" arrival="78.00" arrivalLane="622_4way_346to4way_366_0" arrivalPos="85.60" arrivalSpeed="11.97" duration="50.00" routeLength="275.13" waitingTime="17.00" waitingCount="1" stopTime="0.00" timeLoss="28.19" rerouteNo="0" devices="tripinfo_388" vType="DEFAULT_VEHTYPE" speedFactor="0.95" vaporized=""/>
    <tripinfo id="780" depart="56.00" departLane="693_4way_72to4way_52_0" departPos="5.10" departSpeed="0.00" departDelay="0.31" arrival="78.00" arrivalLane="690_4way_52to4way_51_0" arrivalPos="85.60" arrivalSpeed="10.35" duration="22.00" routeLength="175.13" waitingTime="0.00" waitingCount="0" stopTime="0.00" timeLoss="4.93" rerouteNo="0" devices="tripinfo_780" vType="DEFAULT_VEHTYPE" speedFactor="0.82" vaporized=""/>
    <tripinfo id="189" depart="14.00" departLane="512_4way_30to4way_29_0" departPos="5.10" departSpeed="0.00" departDelay="0.50" arrival="79.00" arrivalLane="474_4way_27to4way_47_0" arrivalPos="85.60" arrivalSpeed="11.80" duration="65.00" routeLength="375.13" waitingTime="24.00" waitingCount="1" stopTime="0.00" timeLoss="34.58" rerouteNo="0" devices="tripinfo_189" vType="DEFAULT_VEHTYPE" speedFactor="0.92" vaporized=""/>
    <tripinfo id="232" depart="17.00" departLane="8_3way_80to3way_100_0" departPos="5.10" departSpeed="0.00" departDelay="0.43" arrival="79.00" arrivalLane="145_4way_101to4way_102_0" arrivalPos="85.60" arrivalSpeed="14.25" duration="62.00" routeLength="275.13" waitingTime="30.00" waitingCount="1" stopTime="0.00" timeLoss="41.98" rerouteNo="0" devices="tripinfo_232" vType="DEFAULT_VEHTYPE" speedFactor="1.06" vaporized=""/>
    <tripinfo id="493" depart="36.00" departLane="261_4way_155to4way_156_0" departPos="5.10" departSpeed="0.00" departDelay="0.80" arrival="79.00" arrivalLane="191_4way_136to4way_116_0" arrivalPos="85.60" arrivalSpeed="12.63" duration="43.00" routeLength="275.13" waitingTime="9.00" waitingCount="1" stopTime="0.00" timeLoss="21.48" rerouteNo="0" devices="tripinfo_493" vType="DEFAULT_VEHTYPE" speedFactor="0.94" vaporized=""/>
    <tripinfo id="956" depart="69.00" departLane="152_4way_103to4way_123_0" departPos="5.10" departSpeed="0.00" departDelay="0.74" arrival="79.00" arrivalLane="152_4way_103to4way_123_0" arrivalPos="85.60" arrivalSpeed="12.79" duration="10.00" routeLength="80.50" waitingTime="0.00" waitingCount="0" stopTime="0.00" timeLoss="3.37" rerouteNo="0" devices="tripinfo_956" vType="DEFAULT_VEHTYPE" speedFactor="0.94" vaporized=""/>
    <tripinfo id="741" depart="53.00" departLane="40_4way_38to3way_18_0" departPos="5.10" departSpeed="0.00" departDelay="0.09" arrival="81.00" arrivalLane="31_3way_17to3way_16_0" arrivalPos="85.60" arrivalSpeed="14.78" duration="28.00" routeLength="275.13" waitingTime="0.00" waitingCount="0" stopTime="0.00" timeLoss="8.87" rerouteNo="0" devices="tripinfo_741" vType="DEFAULT_VEHTYPE" speedFactor="1.12" vaporized=""/>
    <tripinfo id="884" depart="64.00" departLane="315_4way_187to4way_188_0" departPos="5.10" departSpeed="0.00" departDelay="0.88" arrival="82.00" arrivalLane="317_4way_188to4way_189_0" arrivalPos="85.60" arrivalSpeed="12.00" duration="18.00" routeLength="180.50" waitingTime="0.00" waitingCount="0" stopTime="0.00" timeLoss="2.87" rerouteNo="0" devices="tripinfo_884" vType="DEFAULT_VEHTYPE" speedFactor="0.87" vaporized=""/>
    <tripinfo id="973" depart="72.00" departLane="69_3way_4to3way_3_0" departPos="5.10" departSpeed="0.00" departDelay="2.53" arrival="82.00" arrivalLane="69_3way_4to3way_3_0" arrivalPos="85.60" arrivalSpeed="11.79" duration="10.00" routeLength="80.50" waitingTime="0.00" waitingCount="0" stopTime="0.00" timeLoss="3.25" rerouteNo="0" devices="tripinfo_973" vType="DEFAULT_VEHTYPE" speedFactor="0.93" vaporized=""/>
    <tripinfo id="418" depart="30.00" departLane="131_3way_59to4way_58_0" departPos="5.10" departSpeed="0.00" departDelay="0.15" arrival="84.00" arrivalLane="703_4way_57to4way_77_0" arrivalPos="85.60" arrivalSpeed="9.95" duration="54.00" routeLength="275.13" waitingTime="18.00" waitingCount="1" stopTime="0.00" timeLoss="27.40" rerouteNo="0" devices="tripinfo_418" vType="DEFAULT_VEHTYPE" speedFactor="0.79" vaporized=""/>
    <tripinfo id="1047" depart="75.00" departLane="270_4way_162to4way_163_0" departPos="5.10" departSpeed="0.00" departDelay="0.24" arrival="84.00" arrivalLane="270_4way_162to4way_163_0" arrivalPos="85.60" arrivalSpeed="13.10" duration="9.00" routeLength="80.50" waitingTime="0.00" waitingCount="0" stopTime="0.00" timeLoss="3.02" rerouteNo="0" devices="tripinfo_1047" vType="DEFAULT_VEHTYPE" speedFactor="1.01" vaporized=""/>
    <tripinfo id="357" depart="26.00" departLane="34_4way_161to3way_160_0" departPos="5.10" departSpeed="0.00" departDelay="0.51" arrival="86.00" arrivalLane="53_3way_220to3way_240_0" arrivalPos="85.60" arrivalSpeed="14.13" duration="60.00" routeLength="475.13" waitingTime="11.00" waitingCount="1" stopTime="0.00" timeLoss="25.47" rerouteNo="0" devices="tripinfo_357" vType="DEFAULT_VEHTYPE" speedFactor="1.04" vaporized=""/>
    <tripinfo id="421" depart="31.00" departLane="664_4way_374to4way_373_0" departPos="5.10" departSpeed="0.00" departDelay="0.94" arrival="87.00" arrivalLane="112_4way_372to3way_392_0" arrivalPos="85.60" arrivalSpeed="12.97" duration="56.00" routeLength="275.13" waitingTime="25.00" waitingCount="1" stopTime="0.00" timeLoss="34.85" rerouteNo="0" devices="tripinfo_421" vType="DEFAULT_VEHTYPE" speedFactor="0.99" vaporized=""/>
    <tripinfo id="662" depart="48.00" departLane="629_4way_36to4way_35_0" departPos="5.10" departSpeed="0.00" departDelay="0.73" arrival="88.00" arrivalLane="699_4way_55to4way_75_0" arrivalPos="85.60" arrivalSpeed="12.62" duration="40.00" routeLength="275.13" waitingTime="8.00" waitingCount="1" stopTime="0.00" timeLoss="18.62" rerouteNo="0" devices="tripinfo_662" vType="DEFAULT_VEHTYPE" speedFactor="0.98" vaporized=""/>
    <tripinfo id="559" depart="40.00" departLane="665_4way_374to4way_375_0" departPos="5.10" departSpeed="0.00" departDelay="0.09" arrival="90.00" arrivalLane="644_4way_376to4way_356_0" arrivalPos="85.60" arrivalSpeed="11.38" duration="50.00" routeLength="275.13" waitingTime="17.00" waitingCount="1" stopTime="0.00" timeLoss="25.43" rerouteNo="0" devices="tripinfo_559" vType="DEFAULT_VEHTYPE" speedFactor="0.85" vaporized=""/>
    <tripinfo id="887" depart="64.00" departLane="8_3way_100to3way_80_0" departPos="5.10" departSpeed="0.00" departDelay="0.67" arrival="90.00" arrivalLane="126_3way_60to3way_40_0" arrivalPos="85.60" arrivalSpeed="13.03" duration="26.00" routeLength="280.50" waitingTime="0.00" waitingCount="0" stopTime="0.00" timeLoss="4.49" rerouteNo="0" devices="tripinfo_887" vType="DEFAULT_VEHTYPE" speedFactor="0.96" vaporized=""/>
    <tripinfo id="325" depart="24.00" departLane="547_4way_309to4way_308_0" departPos="5.10" departSpeed="0.00" departDelay="0.79" arrival="92.00" arrivalLane="624_4way_347to4way_367_0" arrivalPos="85.60" arrivalSpeed="13.71" duration="68.00" routeLength="475.13" waitingTime="24.00" waitingCount="1" stopTime="0.00" timeLoss="32.89" rerouteNo="0" devices="tripinfo_325" vType="DEFAULT_VEHTYPE" speedFactor="1.01" vaporized=""/>
    <tripinfo id="932" depart="67.00" departLane="420_4way_244to4way_243_0" departPos="5.10" departSpeed="0.00" departDelay="0.45" arrival="92.00" arrivalLane="416_4way_242to4way_241_0" arrivalPos="85.60" arrivalSpeed="12.93" duration="25.00" routeLength="280.50" waitingTime="0.00" waitingCount="0" stopTime="0.00" timeLoss="4.18" rerouteNo="0" devices="tripinfo_932" vType="DEFAULT_VEHTYPE" speedFactor="0.98" vaporized=""/>
    <tripinfo id="163" depart="12.00" departLane="179_4way_132to4way_112_0" departPos="5.10" departSpeed="0.00" departDelay="0.36" arrival="93.00" arrivalLane="571_4way_52to4way_32_0" arrivalPos="85.60" arrivalSpeed="12.27" duration="81.00" routeLength="480.50" waitingTime="33.00" waitingCount="1" stopTime="0.00" timeLoss="44.17" rerouteNo="0" devices="tripinfo_163" vType="DEFAULT_VEHTYPE" speedFactor="0.94" vaporized=""/>
    <tripinfo id="207" depart="18.00" departLane="377_4way_222to4way_221_0" departPos="5.10" departSpeed="0.00" departDelay="3.22" arrival="93.00" arrivalLane="534_4way_301to4way_321_0" arrivalPos="85.60" arrivalSpeed="14.97" duration="75.00" routeLength="575.13" waitingTime="12.00" waitingCount="1" stopTime="0.00" timeLoss="40.37" rerouteNo="0" devices="tripinfo_207" vType="DEFAULT_VEHTYPE" speedFactor="1.24" vaporized=""/>
    <tripinfo id="156" depart="12.00" departLane="81_3way_379to3way_359_0" departPos="5.10" departSpeed="0.00" departDelay="0.86" arrival="94.00" arrivalLane="67_3way_319to3way_299_0" arrivalPos="85.60" arrivalSpeed="11.89" duration="82.00" routeLength="380.50" waitingTime="42.00" waitingCount="1" stopTime="0.00" timeLoss="51.56" rerouteNo="0" devices="tripinfo_156" vType="DEFAULT_VEHTYPE" speedFactor="0.91" vaporized=""/>
    <tripinfo id="197" depart="15.00" departLane="669_4way_58to4way_38_0" departPos="5.10" departSpeed="0.00" departDelay="0.93" arrival="94.00" arrivalLane="23_3way_15to3way_14_0" arrivalPos="85.60" arrivalSpeed="12.80" duration="79.00" routeLength="575.13" waitingTime="25.00" waitingCount="1" stopTime="0.00" timeLoss="37.47" rerouteNo="0" devices="tripinfo_197" vType="DEFAULT_VEHTYPE" speedFactor="1.01" vaporized=""/>
    <tripinfo id="317" depart="23.00" departLane="669_4way_58to4way_38_0" departPos="5.10" departSpeed="0.00" departDelay="0.37" arrival="95.00" arrivalLane="609_4way_35to4way_34_0" arrivalPos="85.60" arrivalSpeed="8.57" duration="72.00" routeLength="475.13" waitingTime="24.00" waitingCount="1" stopTime="0.00" timeLoss="40.61" rerouteNo="0" devices="tripinfo_317" vType="DEFAULT_VEHTYPE" speedFactor="1.11" vaporized=""/>
    <tripinfo id="7" depart="1.00" departLane="77_3way_359to3way_339_0" departPos="5.10" departSpeed="0.00" departDelay="0.50" arrival="96.00" arrivalLane="55_3way_259to3way_239_0" arrivalPos="85.60" arrivalSpeed="12.46" duration="95.00" routeLength="580.50" waitingTime="39.00" waitingCount="1" stopTime="0.00" timeLoss="50.61" rerouteNo="0" devices="tripinfo_7" vType="DEFAULT_VEHTYPE" speedFactor="0.95" vaporized=""/>
    <tripinfo id="772" depart="56.00" departLane="381_4way_223to4way_224_0" departPos="5.10" departSpeed="0.00" departDelay="0.88" arrival="96.00" arrivalLane="387_4way_226to4way_227_0" arrivalPos="85.60" arrivalSpeed="10.07" duration="40.00" routeLength="380.50" waitingTime="0.00" waitingCount="0" stopTime="0.00" timeLoss="5.63" rerouteNo="0" devices="tripinfo_772" vType="DEFAULT_VEHTYPE" speedFactor="0.81" vaporized=""/>
    <tripinfo id="1083" depart="80.00" departLane="162_4way_106to4way_86_0" departPos="5.10" departSpeed="0.00" departDelay="2.67" arrival="96.00" arrivalLane="716_4way_86to4way_66_0" arrivalPos="85.60" arrivalSpeed="14.81" duration="16.00" routeLength="180.50" waitingTime="0.00" waitingCount="0" stopTime="0.00" timeLoss="3.78" rerouteNo="0" devices="tripinfo_1083" vType="DEFAULT_VEHTYPE" speedFactor="1.07" vaporized=""/>
    <tripinfo id="1195" depart="86.00" departLane="601_4way_354to4way_334_0" departPos="5.10" departSpeed="0.00" departDelay="0.68" arrival="96.00" arrivalLane="601_4way_354to4way_334_0" arrivalPos="85.60" arrivalSpeed="11.85" duration="10.00" routeLength="80.50" waitingTime="0.00" waitingCount="0" stopTime="0.00" timeLoss="3.22" rerouteNo="0" devices="tripinfo_1195" vType="DEFAULT_VEHTYPE" speedFactor="0.93" vaporized=""/>
    <tripinfo id="663" depart="48.00" departLane="29_3way_179to3way_159_0" departPos="5.10" departSpeed="0.00" departDelay="0.66" arrival="100.00" arrivalLane="139_3way_79to4way_78_0" arrivalPos="85.60" arrivalSpeed="13.85" duration="52.00" routeLength="575.13" waitingTime="0.00" waitingCount="0" stopTime="0.00" timeLoss="9.79" rerouteNo="0" devices="tripinfo_663" vType="DEFAULT_VEHTYPE" speedFactor="1.01" vaporized=""/>
    <tripinfo id="670" depart="48.00" departLane="467_4way_268to4way_267_0" departPos="5.10" departSpeed="0.00" departDelay="0.16" arrival="100.00" arrivalLane="457_4way_263to4way_262_0" arrivalPos="85.60" arrivalSpeed="13.73" duration="52.00" routeLength="580.50" waitingTime="1.00" waitingCount="1" stopTime="0.00" timeLoss="11.34" rerouteNo="0" devices="tripinfo_670" vType="DEFAULT_VEHTYPE" speedFactor="1.03" vaporized=""/>
    <tripinfo id="245" depart="18.00" departLane="512_4way_30to4way_29_0" departPos="5.10" departSpeed="0.00" departDelay="0.51" arrival="101.00" arrivalLane="395_4way_24to4way_23_0" arrivalPos="85.60" arrivalSpeed="14.96" duration="83.00" routeLength="680.50" waitingTime="24.00" waitingCount="1" stopTime="0.00" timeLoss="39.70" rerouteNo="0" devices="tripinfo_245" vType="DEFAULT_VEHTYPE" speedFactor="1.15" vaporized=""/>
    <tripinfo id="346" depart="28.00" departLane="619_4way_345to4way_346_0" departPos="5.10" departSpeed="0.00" departDelay="3.30" arrival="101.00" arrivalLane="509_4way_308to4way_288_0" arrivalPos="85.60" arrivalSpeed="12.66" duration="73.00" routeLength="575.13" waitingTime="15.00" waitingCount="1" stopTime="0.00" timeLoss="28.41" rerouteNo="0" devices="tripinfo_346" vType="DEFAULT_VEHTYPE" speedFactor="0.94" vaporized=""/>
    <tripinfo id="209" depart="15.00" departLane="393_4way_230to4way_229_0" departPos="5.10" departSpeed="0.00" departDelay="0.08" arrival="103.00" arrivalLane="104_4way_369to3way_389_0" arrivalPos="85.60" arrivalSpeed="13.03" duration="88.00" routeLength="875.13" waitingTime="6.00" waitingCount="1" stopTime="0.00" timeLoss="20.41" rerouteNo="0" devices="tripinfo_209" vType="DEFAULT_VEHTYPE" speedFactor="0.95" vaporized=""/>
    <tripinfo id="430" depart="31.00" departLane="231_4way_137to4way_157_0" departPos="5.10" departSpeed="0.00" departDelay="0.30" arrival="103.00" arrivalLane="412_4way_237to4way_257_0" arrivalPos="85.60" arrivalSpeed="12.01" duration="72.00" routeLength="580.50" waitingTime="16.00" waitingCount="1" stopTime="0.00" timeLoss="25.47" rerouteNo="0" devices="tripinfo_430" vType="DEFAULT_VEHTYPE" speedFactor="0.90" vaporized=""/>
    <tripinfo id="789" depart="57.00" departLane="599_4way_353to4way_333_0" departPos="5.10" departSpeed="0.00" departDelay="0.66" arrival="104.00" arrivalLane="553_4way_311to4way_310_0" arrivalPos="85.60" arrivalSpeed="12.99" duration="47.00" routeLength="475.13" waitingTime="0.00" waitingCount="0" stopTime="0.00" timeLoss="10.41" rerouteNo="0" devices="tripinfo_789" vType="DEFAULT_VEHTYPE" speedFactor="0.97" vaporized=""/>