<?xml version="1.0" encoding="UTF-8"?>

<!-- generated on 2023-07-27 11:12:09 by Eclipse SUMO sumo Version 1.12.0
<configuration xmlns:xsi="http://www.w3.org/2001/XMLSchema-instance" xsi:noNamespaceSchemaLocation="http://sumo.dlr.de/xsd/sumoConfiguration.xsd">

    <input>
        <net-file value="../../data_generation/sq.net.xml"/>
        <route-files value="../../data_generation/sq.rou.xml"/>
    </input>

    <output>
        <tripinfo-output value="tripinfo.xml"/>
        <statistic-output value="statistic.xml"/>
    </output>

    <time>
        <begin value="0"/>
        <end value="3600"/>
    </time>

    <processing>
        <time-to-teleport value="-1"/>
    </processing>

    <traci_server>
        <remote-port value="40731"/>
    </traci_server>

    <random_number>
        <seed value="1395"/>
    </random_number>

    <gui_only>
        <gui-settings-file value="../../data_generation/view_HY_0402.xml"/>
    </gui_only>

</configuration>
-->

<tripinfos xmlns:xsi="http://www.w3.org/2001/XMLSchema-instance" xsi:noNamespaceSchemaLocation="http://sumo.dlr.de/xsd/tripinfo_file.xsd">
    <tripinfo id="1" depart="1.00" departLane="23_3way_5to4way_6_0" departPos="5.10" departSpeed="0.00" departDelay="0.60" arrival="11.00" arrivalLane="23_3way_5to4way_6_0" arrivalPos="85.60" arrivalSpeed="13.41" duration="10.00" routeLength="80.50" waitingTime="0.00" waitingCount="0" stopTime="0.00" timeLoss="3.58" rerouteNo="0" devices="tripinfo_1" vType="DEFAULT_VEHTYPE" speedFactor="1.04" vaporized=""/>
    <tripinfo id="16" depart="7.00" departLane="3_4way_6to3way_1_0" departPos="5.10" departSpeed="0.00" departDelay="0.60" arrival="18.00" arrivalLane="3_4way_6to3way_1_0" arrivalPos="85.60" arrivalSpeed="12.37" duration="11.00" routeLength="80.50" waitingTime="0.00" waitingCount="0" stopTime="0.00" timeLoss="3.61" rerouteNo="0" devices="tripinfo_16" vType="DEFAULT_VEHTYPE" speedFactor="0.90" vaporized=""/>
    <tripinfo id="21" depart="9.00" departLane="18_3way_22to3way_23_0" departPos="5.10" departSpeed="0.00" departDelay="0.60" arrival="19.00" arrivalLane="18_3way_22to3way_23_0" arrivalPos="85.60" arrivalSpeed="10.97" duration="10.00" routeLength="80.50" waitingTime="0.00" waitingCount="0" stopTime="0.00" timeLoss="2.56" rerouteNo="0" devices="tripinfo_21" vType="DEFAULT_VEHTYPE" speedFactor="0.82" vaporized=""/>
    <tripinfo id="24" depart="10.00" departLane="8_3way_9to3way_14_0" departPos="5.10" departSpeed="0.00" departDelay="0.40" arrival="20.00" arrivalLane="8_3way_9to3way_14_0" arrivalPos="85.60" arrivalSpeed="12.35" duration="10.00" routeLength="80.50" waitingTime="0.00" waitingCount="0" stopTime="0.00" timeLoss="3.15" rerouteNo="0" devices="tripinfo_24" vType="DEFAULT_VEHTYPE" speedFactor="0.97" vaporized=""/>
    <tripinfo id="15" depart="6.00" departLane="5_3way_5to3way_10_0" departPos="5.10" departSpeed="0.00" departDelay="0.00" arrival="23.00" arrivalLane="4_3way_10to3way_15_0" arrivalPos="85.60" arrivalSpeed="13.93" duration="17.00" routeLength="180.50" waitingTime="0.00" waitingCount="0" stopTime="0.00" timeLoss="3.66" rerouteNo="0" devices="tripinfo_15" vType="DEFAULT_VEHTYPE" speedFactor="1.05" vaporized=""/>
    <tripinfo id="22" depart="9.00" departLane="4_3way_15to3way_10_0" departPos="5.10" departSpeed="0.00" departDelay="0.20" arrival="26.00" arrivalLane="5_3way_10to3way_5_0" arrivalPos="85.60" arrivalSpeed="13.55" duration="17.00" routeLength="180.50" waitingTime="0.00" waitingCount="0" stopTime="0.00" timeLoss="3.22" rerouteNo="0" devices="tripinfo_22" vType="DEFAULT_VEHTYPE" speedFactor="1.00" vaporized=""/>
    <tripinfo id="45" depart="18.00" departLane="3_3way_1to4way_6_0" departPos="5.10" departSpeed="0.00" departDelay="0.00" arrival="27.00" arrivalLane="3_3way_1to4way_6_0" arrivalPos="85.60" arrivalSpeed="13.09" duration="9.00" routeLength="80.50" waitingTime="0.00" waitingCount="0" stopTime="0.00" timeLoss="3.07" rerouteNo="0" devices="tripinfo_45" vType="DEFAULT_VEHTYPE" speedFactor="1.00" vaporized=""/>
    <tripinfo id="27" depart="11.00" departLane="21_3way_3to3way_9_0" departPos="5.10" departSpeed="0.00" departDelay="0.20" arrival="28.00" arrivalLane="21_3way_3to3way_9_0" arrivalPos="188.80" arrivalSpeed="13.75" duration="17.00" routeLength="183.70" waitingTime="0.00" waitingCount="0" stopTime="0.00" timeLoss="4.08" rerouteNo="0" devices="tripinfo_27" vType="DEFAULT_VEHTYPE" speedFactor="1.03" vaporized=""/>
    <tripinfo id="20" depart="8.00" departLane="21_3way_3to3way_9_0" departPos="5.10" departSpeed="0.00" departDelay="0.00" arrival="35.00" arrivalLane="8_3way_9to3way_14_0" arrivalPos="85.60" arrivalSpeed="11.99" duration="27.00" routeLength="283.70" waitingTime="0.00" waitingCount="0" stopTime="0.00" timeLoss="3.46" rerouteNo="0" devices="tripinfo_20" vType="DEFAULT_VEHTYPE" speedFactor="0.89" vaporized=""/>
    <tripinfo id="63" depart="27.00" departLane="23_4way_6to3way_5_0" departPos="5.10" departSpeed="0.00" departDelay="1.80" arrival="36.00" arrivalLane="23_4way_6to3way_5_0" arrivalPos="85.60" arrivalSpeed="12.14" duration="9.00" routeLength="80.50" waitingTime="0.00" waitingCount="0" stopTime="0.00" timeLoss="2.84" rerouteNo="0" devices="tripinfo_63" vType="DEFAULT_VEHTYPE" speedFactor="0.95" vaporized=""/>
    <tripinfo id="64" depart="26.00" departLane="27_4way_11to4way_6_0" departPos="5.10" departSpeed="0.00" departDelay="0.40" arrival="36.00" arrivalLane="27_4way_11to4way_6_0" arrivalPos="85.60" arrivalSpeed="13.19" duration="10.00" routeLength="80.50" waitingTime="0.00" waitingCount="0" stopTime="0.00" timeLoss="3.24" rerouteNo="0" devices="tripinfo_64" vType="DEFAULT_VEHTYPE" speedFactor="0.96" vaporized=""/>
    <tripinfo id="32" depart="13.00" departLane="11_3way_15to4way_16_0" departPos="5.10" departSpeed="0.00" departDelay="0.20" arrival="38.00" arrivalLane="34_4way_17to4way_18_0" arrivalPos="85.60" arrivalSpeed="13.63" duration="25.00" routeLength="280.50" waitingTime="0.00" waitingCount="0" stopTime="0.00" timeLoss="4.42" rerouteNo="0" devices="tripinfo_32" vType="DEFAULT_VEHTYPE" speedFactor="1.00" vaporized=""/>
    <tripinfo id="71" depart="29.00" departLane="24_4way_8to3way_9_0" departPos="5.10" departSpeed="0.00" departDelay="0.60" arrival="38.00" arrivalLane="24_4way_8to3way_9_0" arrivalPos="85.60" arrivalSpeed="15.63" duration="9.00" routeLength="80.50" waitingTime="0.00" waitingCount="0" stopTime="0.00" timeLoss="3.83" rerouteNo="0" devices="tripinfo_71" vType="DEFAULT_VEHTYPE" speedFactor="1.13" vaporized=""/>
    <tripinfo id="50" depart="20.00" departLane="13_4way_18to3way_19_0" departPos="5.10" departSpeed="0.00" departDelay="0.00" arrival="39.00" arrivalLane="7_3way_19to3way_14_0" arrivalPos="85.60" arrivalSpeed="13.59" duration="19.00" routeLength="175.13" waitingTime="0.00" waitingCount="0" stopTime="0.00" timeLoss="5.30" rerouteNo="0" devices="tripinfo_50" vType="DEFAULT_VEHTYPE" speedFactor="1.01" vaporized=""/>
    <tripinfo id="76" depart="31.00" departLane="11_3way_15to4way_16_0" departPos="5.10" departSpeed="0.00" departDelay="0.60" arrival="41.00" arrivalLane="11_3way_15to4way_16_0" arrivalPos="85.60" arrivalSpeed="12.31" duration="10.00" routeLength="80.50" waitingTime="0.00" waitingCount="0" stopTime="0.00" timeLoss="2.80" rerouteNo="0" devices="tripinfo_76" vType="DEFAULT_VEHTYPE" speedFactor="0.90" vaporized=""/>
    <tripinfo id="51" depart="21.00" departLane="33_4way_17to4way_16_0" departPos="5.10" departSpeed="0.00" departDelay="0.60" arrival="43.00" arrivalLane="11_4way_16to3way_15_0" arrivalPos="85.60" arrivalSpeed="10.14" duration="22.00" routeLength="180.50" waitingTime="0.00" waitingCount="0" stopTime="0.00" timeLoss="3.75" rerouteNo="0" devices="tripinfo_51" vType="DEFAULT_VEHTYPE" speedFactor="0.74" vaporized=""/>
    <tripinfo id="26" depart="11.00" departLane="13_3way_19to4way_18_0" departPos="5.10" departSpeed="0.00" departDelay="0.60" arrival="45.00" arrivalLane="11_4way_16to3way_15_0" arrivalPos="85.60" arrivalSpeed="13.74" duration="34.00" routeLength="380.50" waitingTime="0.00" waitingCount="0" stopTime="0.00" timeLoss="6.60" rerouteNo="0" devices="tripinfo_26" vType="DEFAULT_VEHTYPE" speedFactor="1.03" vaporized=""/>
    <tripinfo id="47" depart="19.00" departLane="13_3way_19to4way_18_0" departPos="5.10" departSpeed="0.00" departDelay="0.20" arrival="46.00" arrivalLane="33_4way_17to4way_16_0" arrivalPos="85.60" arrivalSpeed="11.44" duration="27.00" routeLength="280.50" waitingTime="0.00" waitingCount="0" stopTime="0.00" timeLoss="3.62" rerouteNo="0" devices="tripinfo_47" vType="DEFAULT_VEHTYPE" speedFactor="0.90" vaporized=""/>
    <tripinfo id="68" depart="28.00" departLane="33_4way_16to4way_17_0" departPos="5.10" departSpeed="0.00" departDelay="0.80" arrival="46.00" arrivalLane="29_4way_17to4way_12_0" arrivalPos="85.60" arrivalSpeed="14.26" duration="18.00" routeLength="175.13" waitingTime="0.00" waitingCount="0" stopTime="0.00" timeLoss="5.40" rerouteNo="0" devices="tripinfo_68" vType="DEFAULT_VEHTYPE" speedFactor="1.09" vaporized=""/>
    <tripinfo id="89" depart="36.00" departLane="23_4way_6to3way_5_0" departPos="5.10" departSpeed="0.00" departDelay="0.40" arrival="46.00" arrivalLane="23_4way_6to3way_5_0" arrivalPos="85.60" arrivalSpeed="12.48" duration="10.00" routeLength="80.50" waitingTime="0.00" waitingCount="0" stopTime="0.00" timeLoss="3.02" rerouteNo="0" devices="tripinfo_89" vType="DEFAULT_VEHTYPE" speedFactor="0.93" vaporized=""/>
    <tripinfo id="40" depart="16.00" departLane="1_3way_2to3way_1_0" departPos="5.10" departSpeed="0.00" departDelay="0.00" arrival="47.00" arrivalLane="5_3way_5to3way_10_0" arrivalPos="85.60" arrivalSpeed="14.28" duration="31.00" routeLength="377.30" waitingTime="0.00" waitingCount="0" stopTime="0.00" timeLoss="5.00" rerouteNo="0" devices="tripinfo_40" vType="DEFAULT_VEHTYPE" speedFactor="1.08" vaporized=""/>
    <tripinfo id="65" depart="28.00" departLane="11_3way_15to4way_16_0" departPos="5.10" departSpeed="0.00" departDelay="2.00" arrival="47.00" arrivalLane="26_4way_16to4way_11_0" arrivalPos="85.60" arrivalSpeed="15.93" duration="19.00" routeLength="175.13" waitingTime="0.00" waitingCount="0" stopTime="0.00" timeLoss="6.59" rerouteNo="0" devices="tripinfo_65" vType="DEFAULT_VEHTYPE" speedFactor="1.20" vaporized=""/>
    <tripinfo id="94" depart="38.00" departLane="7_3way_19to3way_14_0" departPos="5.10" departSpeed="0.00" departDelay="0.40" arrival="47.00" arrivalLane="7_3way_19to3way_14_0" arrivalPos="85.60" arrivalSpeed="14.62" duration="9.00" routeLength="80.50" waitingTime="0.00" waitingCount="0" stopTime="0.00" timeLoss="3.41" rerouteNo="0" devices="tripinfo_94" vType="DEFAULT_VEHTYPE" speedFactor="1.08" vaporized=""/>
    <tripinfo id="28" depart="12.00" departLane="14_3way_3to3way_2_0" departPos="5.10" departSpeed="0.00" departDelay="0.80" arrival="48.00" arrivalLane="27_4way_6to4way_11_0" arrivalPos="85.60" arrivalSpeed="9.74" duration="36.00" routeLength="375.13" waitingTime="0.00" waitingCount="0" stopTime="0.00" timeLoss="8.46" rerouteNo="0" devices="tripinfo_28" vType="DEFAULT_VEHTYPE" speedFactor="1.03" vaporized=""/>
    <tripinfo id="69" depart="29.00" departLane="32_4way_13to4way_8_0" departPos="5.10" departSpeed="0.00" departDelay="1.40" arrival="48.00" arrivalLane="22_4way_8to3way_3_0" arrivalPos="85.60" arrivalSpeed="10.20" duration="19.00" routeLength="180.50" waitingTime="0.00" waitingCount="0" stopTime="0.00" timeLoss="3.08" rerouteNo="0" devices="tripinfo_69" vType="DEFAULT_VEHTYPE" speedFactor="0.82" vaporized=""/>
    <tripinfo id="78" depart="38.00" departLane="34_4way_17to4way_18_0" departPos="5.10" departSpeed="0.00" departDelay="6.80" arrival="48.00" arrivalLane="34_4way_17to4way_18_0" arrivalPos="85.60" arrivalSpeed="9.78" duration="10.00" routeLength="80.50" waitingTime="0.00" waitingCount="0" stopTime="0.00" timeLoss="4.28" rerouteNo="0" devices="tripinfo_78" vType="DEFAULT_VEHTYPE" speedFactor="1.03" vaporized=""/>
    <tripinfo id="98" depart="40.00" departLane="1_3way_2to3way_1_0" departPos="5.10" departSpeed="0.00" departDelay="0.80" arrival="50.00" arrivalLane="1_3way_2to3way_1_0" arrivalPos="85.60" arrivalSpeed="11.90" duration="10.00" routeLength="80.50" waitingTime="0.00" waitingCount="0" stopTime="0.00" timeLoss="2.62" rerouteNo="0" devices="tripinfo_98" vType="DEFAULT_VEHTYPE" speedFactor="0.88" vaporized=""/>
    <tripinfo id="99" depart="40.00" departLane="11_3way_15to4way_16_0" departPos="5.10" departSpeed="0.00" departDelay="0.40" arrival="50.00" arrivalLane="11_3way_15to4way_16_0" arrivalPos="85.60" arrivalSpeed="13.35" duration="10.00" routeLength="80.50" waitingTime="0.00" waitingCount="0" stopTime="0.00" timeLoss="3.59" rerouteNo="0" devices="tripinfo_99" vType="DEFAULT_VEHTYPE" speedFactor="0.97" vaporized=""/>
    <tripinfo id="61" depart="25.00" departLane="11_3way_15to4way_16_0" departPos="5.10" departSpeed="0.00" departDelay="0.60" arrival="52.00" arrivalLane="27_4way_11to4way_6_0" arrivalPos="85.60" arrivalSpeed="12.98" duration="27.00" routeLength="275.13" waitingTime="0.00" waitingCount="0" stopTime="0.00" timeLoss="6.63" rerouteNo="0" devices="tripinfo_61" vType="DEFAULT_VEHTYPE" speedFactor="1.01" vaporized=""/>
    <tripinfo id="70" depart="31.00" departLane="34_4way_18to4way_17_0" departPos="5.10" departSpeed="0.00" departDelay="3.00" arrival="52.00" arrivalLane="33_4way_17to4way_16_0" arrivalPos="85.60" arrivalSpeed="9.09" duration="21.00" routeLength="180.50" waitingTime="0.00" waitingCount="0" stopTime="0.00" timeLoss="3.22" rerouteNo="0" devices="tripinfo_70" vType="DEFAULT_VEHTYPE" speedFactor="0.75" vaporized=""/>
    <tripinfo id="111" depart="45.00" departLane="7_3way_14to3way_19_0" departPos="5.10" departSpeed="0.00" departDelay="0.60" arrival="56.00" arrivalLane="7_3way_14to3way_19_0" arrivalPos="85.60" arrivalSpeed="11.10" duration="11.00" routeLength="80.50" waitingTime="0.00" waitingCount="0" stopTime="0.00" timeLoss="3.19" rerouteNo="0" devices="tripinfo_111" vType="DEFAULT_VEHTYPE" speedFactor="0.84" vaporized=""/>
    <tripinfo id="116" depart="47.00" departLane="22_3way_3to4way_8_0" departPos="5.10" departSpeed="0.00" departDelay="0.60" arrival="57.00" arrivalLane="22_3way_3to4way_8_0" arrivalPos="85.60" arrivalSpeed="13.04" duration="10.00" routeLength="80.50" waitingTime="0.00" waitingCount="0" stopTime="0.00" timeLoss="3.42" rerouteNo="0" devices="tripinfo_116" vType="DEFAULT_VEHTYPE" speedFactor="0.99" vaporized=""/>
    <tripinfo id="122" depart="49.00" departLane="30_4way_7to4way_12_0" departPos="5.10" departSpeed="0.00" departDelay="0.20" arrival="58.00" arrivalLane="30_4way_7to4way_12_0" arrivalPos="85.60" arrivalSpeed="15.72" duration="9.00" routeLength="80.50" waitingTime="0.00" waitingCount="0" stopTime="0.00" timeLoss="3.52" rerouteNo="0" devices="tripinfo_122" vType="DEFAULT_VEHTYPE" speedFactor="1.20" vaporized=""/>
    <tripinfo id="124" depart="50.00" departLane="23_4way_6to3way_5_0" departPos="5.10" departSpeed="0.00" departDelay="0.40" arrival="59.00" arrivalLane="23_4way_6to3way_5_0" arrivalPos="85.60" arrivalSpeed="14.61" duration="9.00" routeLength="80.50" waitingTime="0.00" waitingCount="0" stopTime="0.00" timeLoss="3.44" rerouteNo="0" devices="tripinfo_124" vType="DEFAULT_VEHTYPE" speedFactor="1.11" vaporized=""/>
    <tripinfo id="101" depart="42.00" departLane="9_3way_14to4way_13_0" departPos="5.10" departSpeed="0.00" departDelay="1.60" arrival="60.00" arrivalLane="31_4way_13to4way_18_0" arrivalPos="85.60" arrivalSpeed="14.15" duration="18.00" routeLength="175.13" waitingTime="0.00" waitingCount="0" stopTime="0.00" timeLoss="5.27" rerouteNo="0" devices="tripinfo_101" vType="DEFAULT_VEHTYPE" speedFactor="1.03" vaporized=""/>
    <tripinfo id="81" depart="33.00" departLane="1_3way_2to3way_1_0" departPos="5.10" departSpeed="0.00" departDelay="0.60" arrival="63.00" arrivalLane="5_3way_5to3way_10_0" arrivalPos="85.60" arrivalSpeed="13.79" duration="30.00" routeLength="377.30" waitingTime="0.00" waitingCount="0" stopTime="0.00" timeLoss="4.04" rerouteNo="0" devices="tripinfo_81" vType="DEFAULT_VEHTYPE" speedFactor="1.05" vaporized=""/>
    <tripinfo id="110" depart="44.00" departLane="30_4way_7to4way_12_0" departPos="5.10" departSpeed="0.00" departDelay="0.00" arrival="63.00" arrivalLane="28_4way_12to4way_13_0" arrivalPos="85.60" arrivalSpeed="13.82" duration="19.00" routeLength="175.13" waitingTime="0.00" waitingCount="0" stopTime="0.00" timeLoss="5.63" rerouteNo="0" devices="tripinfo_110" vType="DEFAULT_VEHTYPE" speedFactor="1.05" vaporized=""/>
    <tripinfo id="137" depart="55.00" departLane="3_3way_1to4way_6_0" departPos="5.10" departSpeed="0.00" departDelay="0.20" arrival="64.00" arrivalLane="3_3way_1to4way_6_0" arrivalPos="85.60" arrivalSpeed="15.32" duration="9.00" routeLength="80.50" waitingTime="0.00" waitingCount="0" stopTime="0.00" timeLoss="3.41" rerouteNo="0" devices="tripinfo_137" vType="DEFAULT_VEHTYPE" speedFactor="1.14" vaporized=""/>
    <tripinfo id="140" depart="56.00" departLane="6_4way_11to3way_10_0" departPos="5.10" departSpeed="0.00" departDelay="0.00" arrival="65.00" arrivalLane="6_4way_11to3way_10_0" arrivalPos="85.60" arrivalSpeed="12.63" duration="9.00" routeLength="80.50" waitingTime="0.00" waitingCount="0" stopTime="0.00" timeLoss="2.49" rerouteNo="0" devices="tripinfo_140" vType="DEFAULT_VEHTYPE" speedFactor="0.93" vaporized=""/>
    <tripinfo id="134" depart="58.00" departLane="28_4way_12to4way_13_0" departPos="5.10" departSpeed="0.00" departDelay="4.40" arrival="68.00" arrivalLane="28_4way_12to4way_13_0" arrivalPos="85.60" arrivalSpeed="12.65" duration="10.00" routeLength="80.50" waitingTime="0.00" waitingCount="0" stopTime="0.00" timeLoss="3.79" rerouteNo="0" devices="tripinfo_134" vType="DEFAULT_VEHTYPE" speedFactor="1.00" vaporized=""/>
    <tripinfo id="144" depart="58.00" departLane="22_4way_8to3way_3_0" departPos="5.10" departSpeed="0.00" departDelay="0.40" arrival="68.00" arrivalLane="22_4way_8to3way_3_0" arrivalPos="85.60" arrivalSpeed="14.05" duration="10.00" routeLength="80.50" waitingTime="0.00" waitingCount="0" stopTime="0.00" timeLoss="3.66" rerouteNo="0" devices="tripinfo_144" vType="DEFAULT_VEHTYPE" speedFactor="1.07" vaporized=""/>
    <tripinfo id="34" depart="14.00" departLane="3_3way_1to4way_6_0" departPos="5.10" departSpeed="0.00" departDelay="0.40" arrival="70.00" arrivalLane="35_4way_6to4way_7_0" arrivalPos="85.60" arrivalSpeed="5.21" duration="56.00" routeLength="175.13" waitingTime="30.00" waitingCount="1" stopTime="0.00" timeLoss="41.69" rerouteNo="0" devices="tripinfo_34" vType="DEFAULT_VEHTYPE" speedFactor="0.96" vaporized=""/>
    <tripinfo id="105" depart="42.00" departLane="29_4way_17to4way_12_0" departPos="5.10" departSpeed="0.00" departDelay="0.00" arrival="70.00" arrivalLane="35_4way_7to4way_6_0" arrivalPos="85.60" arrivalSpeed="10.92" duration="28.00" routeLength="275.13" waitingTime="0.00" waitingCount="0" stopTime="0.00" timeLoss="6.08" rerouteNo="0" devices="tripinfo_105" vType="DEFAULT_VEHTYPE" speedFactor="0.95" vaporized=""/>
    <tripinfo id="112" depart="45.00" departLane="2_3way_1to3way_5_0" departPos="5.10" departSpeed="0.00" departDelay="0.20" arrival="70.00" arrivalLane="5_3way_5to3way_10_0" arrivalPos="85.60" arrivalSpeed="12.81" duration="25.00" routeLength="277.30" waitingTime="0.00" waitingCount="0" stopTime="0.00" timeLoss="3.88" rerouteNo="0" devices="tripinfo_112" vType="DEFAULT_VEHTYPE" speedFactor="0.95" vaporized=""/>
    <tripinfo id="123" depart="50.00" departLane="15_3way_2to4way_7_0" departPos="5.10" departSpeed="0.00" departDelay="0.80" arrival="70.00" arrivalLane="36_4way_7to4way_8_0" arrivalPos="85.60" arrivalSpeed="7.91" duration="20.00" routeLength="175.13" waitingTime="0.00" waitingCount="0" stopTime="0.00" timeLoss="7.41" rerouteNo="0" devices="tripinfo_123" vType="DEFAULT_VEHTYPE" speedFactor="1.06" vaporized=""/>
    <tripinfo id="148" depart="60.00" departLane="14_3way_2to3way_3_0" departPos="5.10" departSpeed="0.00" departDelay="0.80" arrival="70.00" arrivalLane="14_3way_2to3way_3_0" arrivalPos="85.60" arrivalSpeed="11.67" duration="10.00" routeLength="80.50" waitingTime="0.00" waitingCount="0" stopTime="0.00" timeLoss="4.57" rerouteNo="0" devices="tripinfo_148" vType="DEFAULT_VEHTYPE" speedFactor="1.07" vaporized=""/>
    <tripinfo id="17" depart="7.00" departLane="33_4way_16to4way_17_0" departPos="5.10" departSpeed="0.00" departDelay="0.20" arrival="71.00" arrivalLane="31_4way_18to4way_13_0" arrivalPos="85.60" arrivalSpeed="6.22" duration="64.00" routeLength="275.13" waitingTime="32.00" waitingCount="1" stopTime="0.00" timeLoss="44.04" rerouteNo="0" devices="tripinfo_17" vType="DEFAULT_VEHTYPE" speedFactor="1.04" vaporized=""/>
    <tripinfo id="145" depart="61.00" departLane="28_4way_12to4way_13_0" departPos="5.10" departSpeed="0.00" departDelay="3.00" arrival="71.00" arrivalLane="28_4way_12to4way_13_0" arrivalPos="85.60" arrivalSpeed="13.34" duration="10.00" routeLength="80.50" waitingTime="0.00" waitingCount="0" stopTime="0.00" timeLoss="2.99" rerouteNo="0" devices="tripinfo_145" vType="DEFAULT_VEHTYPE" speedFactor="0.96" vaporized=""/>
    <tripinfo id="30" depart="15.00" departLane="14_3way_3to3way_2_0" departPos="5.10" departSpeed="0.00" departDelay="3.00" arrival="72.00" arrivalLane="29_4way_12to4way_17_0" arrivalPos="85.60" arrivalSpeed="7.75" duration="57.00" routeLength="375.13" waitingTime="20.00" waitingCount="1" stopTime="0.00" timeLoss="30.64" rerouteNo="0" devices="tripinfo_30" vType="DEFAULT_VEHTYPE" speedFactor="1.05" vaporized=""/>
    <tripinfo id="83" depart="35.00" departLane="9_3way_14to4way_13_0" departPos="5.10" departSpeed="0.00" departDelay="1.80" arrival="72.00" arrivalLane="28_4way_13to4way_12_0" arrivalPos="85.60" arrivalSpeed="7.20" duration="37.00" routeLength="180.50" waitingTime="14.00" waitingCount="1" stopTime="0.00" timeLoss="22.91" rerouteNo="0" devices="tripinfo_83" vType="DEFAULT_VEHTYPE" speedFactor="0.93" vaporized=""/>
    <tripinfo id="108" depart="44.00" departLane="13_4way_18to3way_19_0" departPos="5.10" departSpeed="0.00" departDelay="0.80" arrival="73.00" arrivalLane="8_3way_14to3way_9_0" arrivalPos="85.60" arrivalSpeed="11.42" duration="29.00" routeLength="275.13" waitingTime="0.00" waitingCount="0" stopTime="0.00" timeLoss="5.65" rerouteNo="0" devices="tripinfo_108" vType="DEFAULT_VEHTYPE" speedFactor="0.88" vaporized=""/>
    <tripinfo id="153" depart="63.00" departLane="36_4way_7to4way_8_0" departPos="5.10" departSpeed="0.00" departDelay="1.80" arrival="73.00" arrivalLane="36_4way_7to4way_8_0" arrivalPos="85.60" arrivalSpeed="11.51" duration="10.00" routeLength="80.50" waitingTime="0.00" waitingCount="0" stopTime="0.00" timeLoss="3.21" rerouteNo="0" devices="tripinfo_153" vType="DEFAULT_VEHTYPE" speedFactor="0.90" vaporized=""/>
    <tripinfo id="31" depart="18.00" departLane="14_3way_3to3way_2_0" departPos="5.10" departSpeed="0.00" departDelay="5.60" arrival="75.00" arrivalLane="29_4way_12to4way_17_0" arrivalPos="85.60" arrivalSpeed="10.17" duration="57.00" routeLength="375.13" waitingTime="18.00" waitingCount="1" stopTime="0.00" timeLoss="31.76" rerouteNo="0" devices="tripinfo_31" vType="DEFAULT_VEHTYPE" speedFactor="1.11" vaporized=""/>
    <tripinfo id="2" depart="1.00" departLane="26_4way_11to4way_16_0" departPos="5.10" departSpeed="0.00" departDelay="0.20" arrival="76.00" arrivalLane="17_4way_16to3way_21_0" arrivalPos="85.60" arrivalSpeed="13.94" duration="75.00" routeLength="180.50" waitingTime="53.00" waitingCount="1" stopTime="0.00" timeLoss="62.50" rerouteNo="0" devices="tripinfo_2" vType="DEFAULT_VEHTYPE" speedFactor="1.04" vaporized=""/>
    <tripinfo id="0" depart="0.00" departLane="35_4way_7to4way_6_0" departPos="5.10" departSpeed="0.00" departDelay="0.00" arrival="77.00" arrivalLane="23_4way_6to3way_5_0" arrivalPos="85.60" arrivalSpeed="13.89" duration="77.00" routeLength="180.50" waitingTime="55.00" waitingCount="1" stopTime="0.00" timeLoss="63.57" rerouteNo="0" devices="tripinfo_0" vType="DEFAULT_VEHTYPE" speedFactor="1.00" vaporized=""/>
    <tripinfo id="5" depart="2.00" departLane="5_3way_5to3way_10_0" departPos="5.10" departSpeed="0.00" departDelay="0.00" arrival="77.00" arrivalLane="25_4way_11to4way_12_0" arrivalPos="85.60" arrivalSpeed="12.93" duration="75.00" routeLength="275.13" waitingTime="43.00" waitingCount="1" stopTime="0.00" timeLoss="52.85" rerouteNo="0" devices="tripinfo_5" vType="DEFAULT_VEHTYPE" speedFactor="0.94" vaporized=""/>
    <tripinfo id="9" depart="4.00" departLane="29_4way_12to4way_17_0" departPos="5.10" departSpeed="0.00" departDelay="0.40" arrival="77.00" arrivalLane="34_4way_17to4way_18_0" arrivalPos="85.60" arrivalSpeed="11.87" duration="73.00" routeLength="175.13" waitingTime="49.00" waitingCount="1" stopTime="0.00" timeLoss="58.60" rerouteNo="0" devices="tripinfo_9" vType="DEFAULT_VEHTYPE" speedFactor="0.91" vaporized=""/>
    <tripinfo id="13" depart="6.00" departLane="10_3way_21to3way_15_0" departPos="5.10" departSpeed="0.00" departDelay="0.80" arrival="77.00" arrivalLane="4_3way_15to3way_10_0" arrivalPos="85.60" arrivalSpeed="12.69" duration="71.00" routeLength="283.70" waitingTime="40.00" waitingCount="1" stopTime="0.00" timeLoss="49.25" rerouteNo="0" devices="tripinfo_13" vType="DEFAULT_VEHTYPE" speedFactor="0.98" vaporized=""/>
    <tripinfo id="25" depart="10.00" departLane="7_3way_19to3way_14_0" departPos="5.10" departSpeed="0.00" departDelay="0.00" arrival="77.00" arrivalLane="25_4way_12to4way_11_0" arrivalPos="85.60" arrivalSpeed="12.41" duration="67.00" routeLength="375.13" waitingTime="26.00" waitingCount="1" stopTime="0.00" timeLoss="37.65" rerouteNo="0" devices="tripinfo_25" vType="DEFAULT_VEHTYPE" speedFactor="0.95" vaporized=""/>
    <tripinfo id="43" depart="18.00" departLane="36_4way_7to4way_8_0" departPos="5.10" departSpeed="0.00" departDelay="0.80" arrival="77.00" arrivalLane="22_4way_8to3way_3_0" arrivalPos="85.60" arrivalSpeed="13.05" duration="59.00" routeLength="175.13" waitingTime="37.00" waitingCount="1" stopTime="0.00" timeLoss="44.83" rerouteNo="0" devices="tripinfo_43" vType="DEFAULT_VEHTYPE" speedFactor="0.97" vaporized=""/>
    <tripinfo id="54" depart="24.00" departLane="35_4way_6to4way_7_0" departPos="5.10" departSpeed="0.00" departDelay="2.40" arrival="77.00" arrivalLane="36_4way_7to4way_8_0" arrivalPos="85.60" arrivalSpeed="13.95" duration="53.00" routeLength="180.50" waitingTime="31.00" waitingCount="1" stopTime="0.00" timeLoss="40.09" rerouteNo="0" devices="tripinfo_54" vType="DEFAULT_VEHTYPE" speedFactor="1.07" vaporized=""/>
    <tripinfo id="23" depart="10.00" departLane="22_3way_3to4way_8_0" departPos="5.10" departSpeed="0.00" departDelay="0.80" arrival="78.00" arrivalLane="31_4way_13to4way_18_0" arrivalPos="85.60" arrivalSpeed="11.93" duration="68.00" routeLength="280.50" waitingTime="37.00" waitingCount="1" stopTime="0.00" timeLoss="44.53" rerouteNo="0" devices="tripinfo_23" vType="DEFAULT_VEHTYPE" speedFactor="0.87" vaporized=""/>
    <tripinfo id="29" depart="12.00" departLane="18_3way_22to3way_23_0" departPos="5.10" departSpeed="0.00" departDelay="0.40" arrival="78.00" arrivalLane="7_3way_19to3way_14_0" arrivalPos="85.60" arrivalSpeed="12.70" duration="66.00" routeLength="377.30" waitingTime="27.00" waitingCount="1" stopTime="0.00" timeLoss="36.54" rerouteNo="0" devices="tripinfo_29" vType="DEFAULT_VEHTYPE" speedFactor="0.95" vaporized=""/>
    <tripinfo id="168" depart="68.00" departLane="4_3way_10to3way_15_0" departPos="5.10" departSpeed="0.00" departDelay="0.80" arrival="78.00" arrivalLane="4_3way_10to3way_15_0" arrivalPos="85.60" arrivalSpeed="14.27" duration="10.00" routeLength="80.50" waitingTime="0.00" waitingCount="0" stopTime="0.00" timeLoss="3.85" rerouteNo="0" devices="tripinfo_168" vType="DEFAULT_VEHTYPE" speedFactor="1.10" vaporized=""/>
    <tripinfo id="77" depart="33.00" departLane="36_4way_8to4way_7_0" departPos="5.10" departSpeed="0.00" departDelay="2.20" arrival="79.00" arrivalLane="36_4way_8to4way_7_0" arrivalPos="85.60" arrivalSpeed="10.63" duration="46.00" routeLength="80.50" waitingTime="30.00" waitingCount="1" stopTime="0.00" timeLoss="39.72" rerouteNo="0" devices="tripinfo_77" vType="DEFAULT_VEHTYPE" speedFactor="0.99" vaporized=""/>
    <tripinfo id="132" depart="53.00" departLane="20_4way_18to3way_23_0" departPos="5.10" departSpeed="0.00" departDelay="0.20" arrival="79.00" arrivalLane="18_3way_23to3way_22_0" arrivalPos="85.60" arrivalSpeed="11.66" duration="26.00" routeLength="180.29" waitingTime="2.00" waitingCount="1" stopTime="0.00" timeLoss="10.09" rerouteNo="0" devices="tripinfo_132" vType="DEFAULT_VEHTYPE" speedFactor="0.86" vaporized=""/>
    <tripinfo id="172" depart="69.00" departLane="24_4way_8to3way_9_0" departPos="5.10" departSpeed="0.00" departDelay="0.20" arrival="79.00" arrivalLane="24_4way_8to3way_9_0" arrivalPos="85.60" arrivalSpeed="12.68" duration="10.00" routeLength="80.50" waitingTime="0.00" waitingCount="0" stopTime="0.00" timeLoss="3.35" rerouteNo="0" devices="tripinfo_172" vType="DEFAULT_VEHTYPE" speedFactor="0.92" vaporized=""/>
    <tripinfo id="8" depart="5.00" departLane="36_4way_8to4way_7_0" departPos="5.10" departSpeed="0.00" departDelay="1.80" arrival="80.00" arrivalLane="30_4way_7to4way_12_0" arrivalPos="85.60" arrivalSpeed="13.16" duration="75.00" routeLength="175.13" waitingTime="51.00" waitingCount="1" stopTime="0.00" timeLoss="60.48" rerouteNo="0" devices="tripinfo_8" vType="DEFAULT_VEHTYPE" speedFactor="0.98" vaporized=""/>
    <tripinfo id="19" depart="8.00" departLane="1_3way_2to3way_1_0" departPos="5.10" departSpeed="0.00" departDelay="0.40" arrival="80.00" arrivalLane="26_4way_11to4way_16_0" arrivalPos="85.60" arrivalSpeed="10.59" duration="72.00" routeLength="375.13" waitingTime="26.00" waitingCount="1" stopTime="0.00" timeLoss="40.38" rerouteNo="0" devices="tripinfo_19" vType="DEFAULT_VEHTYPE" speedFactor="0.89" vaporized=""/>