<?xml version="1.0" encoding="UTF-8"?>

<!-- generated on 2023-07-31 09:12:29 by Eclipse SUMO sumo Version 1.12.0
<configuration xmlns:xsi="http://www.w3.org/2001/XMLSchema-instance" xsi:noNamespaceSchemaLocation="http://sumo.dlr.de/xsd/sumoConfiguration.xsd">

    <input>
        <net-file value="../../data_generation/sq.net.xml"/>
        <route-files value="../../data_generation/sq.rou.xml"/>
    </input>

    <output>
        <tripinfo-output value="tripinfo.xml"/>
        <statistic-output value="statistic.xml"/>
    </output>

    <time>
        <begin value="0"/>
        <end value="3600"/>
    </time>

    <processing>
        <time-to-teleport value="-1"/>
    </processing>

    <traci_server>
        <remote-port value="36079"/>
    </traci_server>

    <random_number>
        <seed value="1395"/>
    </random_number>

    <gui_only>
        <gui-settings-file value="../../data_generation/view_HY_0402.xml"/>
    </gui_only>

</configuration>
-->

<tripinfos xmlns:xsi="http://www.w3.org/2001/XMLSchema-instance" xsi:noNamespaceSchemaLocation="http://sumo.dlr.de/xsd/tripinfo_file.xsd">
    <tripinfo id="1" depart="1.00" departLane="373_4way_66to4way_67_0" departPos="5.10" departSpeed="0.00" departDelay="0.87" arrival="10.00" arrivalLane="373_4way_66to4way_67_0" arrivalPos="85.60" arrivalSpeed="13.32" duration="9.00" routeLength="80.50" waitingTime="0.00" waitingCount="0" stopTime="0.00" timeLoss="3.36" rerouteNo="0" devices="tripinfo_1" vType="DEFAULT_VEHTYPE" speedFactor="1.04" vaporized=""/>
    <tripinfo id="22" depart="3.00" departLane="403_4way_98to4way_83_0" departPos="5.10" departSpeed="0.00" departDelay="0.07" arrival="12.00" arrivalLane="403_4way_98to4way_83_0" arrivalPos="85.60" arrivalSpeed="13.26" duration="9.00" routeLength="80.50" waitingTime="0.00" waitingCount="0" stopTime="0.00" timeLoss="2.91" rerouteNo="0" devices="tripinfo_22" vType="DEFAULT_VEHTYPE" speedFactor="1.00" vaporized=""/>
    <tripinfo id="18" depart="6.00" departLane="137_4way_112to4way_97_0" departPos="5.10" departSpeed="0.00" departDelay="3.60" arrival="16.00" arrivalLane="137_4way_112to4way_97_0" arrivalPos="85.60" arrivalSpeed="12.15" duration="10.00" routeLength="80.50" waitingTime="0.00" waitingCount="0" stopTime="0.00" timeLoss="3.12" rerouteNo="0" devices="tripinfo_18" vType="DEFAULT_VEHTYPE" speedFactor="0.96" vaporized=""/>
    <tripinfo id="47" depart="7.00" departLane="40_3way_180to4way_181_0" departPos="5.10" departSpeed="0.00" departDelay="0.73" arrival="17.00" arrivalLane="40_3way_180to4way_181_0" arrivalPos="85.60" arrivalSpeed="11.79" duration="10.00" routeLength="80.50" waitingTime="0.00" waitingCount="0" stopTime="0.00" timeLoss="3.22" rerouteNo="0" devices="tripinfo_47" vType="DEFAULT_VEHTYPE" speedFactor="0.90" vaporized=""/>
    <tripinfo id="115" depart="16.00" departLane="99_3way_75to4way_76_0" departPos="5.10" departSpeed="0.00" departDelay="0.67" arrival="26.00" arrivalLane="99_3way_75to4way_76_0" arrivalPos="85.60" arrivalSpeed="11.97" duration="10.00" routeLength="80.50" waitingTime="0.00" waitingCount="0" stopTime="0.00" timeLoss="3.02" rerouteNo="0" devices="tripinfo_115" vType="DEFAULT_VEHTYPE" speedFactor="0.92" vaporized=""/>
    <tripinfo id="83" depart="12.00" departLane="256_4way_33to4way_18_0" departPos="5.10" departSpeed="0.00" departDelay="0.94" arrival="30.00" arrivalLane="77_4way_18to3way_3_0" arrivalPos="85.60" arrivalSpeed="12.76" duration="18.00" routeLength="180.50" waitingTime="0.00" waitingCount="0" stopTime="0.00" timeLoss="3.78" rerouteNo="0" devices="tripinfo_83" vType="DEFAULT_VEHTYPE" speedFactor="0.93" vaporized=""/>
    <tripinfo id="167" depart="23.00" departLane="357_4way_55to4way_70_0" departPos="5.10" departSpeed="0.00" departDelay="0.74" arrival="33.00" arrivalLane="357_4way_55to4way_70_0" arrivalPos="85.60" arrivalSpeed="11.57" duration="10.00" routeLength="80.50" waitingTime="0.00" waitingCount="0" stopTime="0.00" timeLoss="2.48" rerouteNo="0" devices="tripinfo_167" vType="DEFAULT_VEHTYPE" speedFactor="0.85" vaporized=""/>
    <tripinfo id="7" depart="1.00" departLane="7_3way_119to3way_104_0" departPos="5.10" departSpeed="0.00" departDelay="0.07" arrival="35.00" arrivalLane="88_3way_74to3way_59_0" arrivalPos="85.60" arrivalSpeed="12.72" duration="34.00" routeLength="380.50" waitingTime="0.00" waitingCount="0" stopTime="0.00" timeLoss="4.31" rerouteNo="0" devices="tripinfo_7" vType="DEFAULT_VEHTYPE" speedFactor="0.95" vaporized=""/>
    <tripinfo id="210" depart="28.00" departLane="54_3way_213to4way_198_0" departPos="5.10" departSpeed="0.00" departDelay="0.01" arrival="37.00" arrivalLane="54_3way_213to4way_198_0" arrivalPos="85.60" arrivalSpeed="15.59" duration="9.00" routeLength="80.50" waitingTime="0.00" waitingCount="0" stopTime="0.00" timeLoss="3.59" rerouteNo="0" devices="tripinfo_210" vType="DEFAULT_VEHTYPE" speedFactor="1.20" vaporized=""/>
    <tripinfo id="206" depart="28.00" departLane="93_4way_61to3way_60_0" departPos="5.10" departSpeed="0.00" departDelay="0.54" arrival="38.00" arrivalLane="93_4way_61to3way_60_0" arrivalPos="85.60" arrivalSpeed="12.18" duration="10.00" routeLength="80.50" waitingTime="0.00" waitingCount="0" stopTime="0.00" timeLoss="3.08" rerouteNo="0" devices="tripinfo_206" vType="DEFAULT_VEHTYPE" speedFactor="0.92" vaporized=""/>
    <tripinfo id="163" depart="22.00" departLane="216_4way_173to4way_158_0" departPos="5.10" departSpeed="0.00" departDelay="0.27" arrival="40.00" arrivalLane="191_4way_158to4way_143_0" arrivalPos="85.60" arrivalSpeed="11.94" duration="18.00" routeLength="180.50" waitingTime="0.00" waitingCount="0" stopTime="0.00" timeLoss="3.77" rerouteNo="0" devices="tripinfo_163" vType="DEFAULT_VEHTYPE" speedFactor="0.94" vaporized=""/>
    <tripinfo id="156" depart="24.00" departLane="7_3way_119to3way_104_0" departPos="5.10" departSpeed="0.00" departDelay="3.20" arrival="43.00" arrivalLane="8_3way_104to3way_89_0" arrivalPos="85.60" arrivalSpeed="11.83" duration="19.00" routeLength="180.50" waitingTime="0.00" waitingCount="0" stopTime="0.00" timeLoss="4.08" rerouteNo="0" devices="tripinfo_156" vType="DEFAULT_VEHTYPE" speedFactor="0.91" vaporized=""/>
    <tripinfo id="149" depart="20.00" departLane="116_4way_88to4way_103_0" departPos="5.10" departSpeed="0.00" departDelay="0.14" arrival="46.00" arrivalLane="150_4way_118to4way_133_0" arrivalPos="85.60" arrivalSpeed="12.71" duration="26.00" routeLength="280.50" waitingTime="0.00" waitingCount="0" stopTime="0.00" timeLoss="4.51" rerouteNo="0" devices="tripinfo_149" vType="DEFAULT_VEHTYPE" speedFactor="0.95" vaporized=""/>
    <tripinfo id="98" depart="14.00" departLane="364_4way_76to4way_61_0" departPos="5.10" departSpeed="0.00" departDelay="0.94" arrival="51.00" arrivalLane="79_4way_31to3way_30_0" arrivalPos="85.60" arrivalSpeed="11.11" duration="37.00" routeLength="375.13" waitingTime="0.00" waitingCount="0" stopTime="0.00" timeLoss="5.19" rerouteNo="0" devices="tripinfo_98" vType="DEFAULT_VEHTYPE" speedFactor="0.88" vaporized=""/>
    <tripinfo id="20" depart="3.00" departLane="395_4way_94to4way_79_0" departPos="5.10" departSpeed="0.00" departDelay="0.33" arrival="52.00" arrivalLane="317_4way_34to4way_33_0" arrivalPos="85.60" arrivalSpeed="11.27" duration="49.00" routeLength="475.13" waitingTime="0.00" waitingCount="0" stopTime="0.00" timeLoss="9.43" rerouteNo="0" devices="tripinfo_20" vType="DEFAULT_VEHTYPE" speedFactor="0.89" vaporized=""/>
    <tripinfo id="270" depart="36.00" departLane="301_4way_22to4way_37_0" departPos="5.10" departSpeed="0.00" departDelay="0.01" arrival="52.00" arrivalLane="326_4way_37to4way_52_0" arrivalPos="85.60" arrivalSpeed="14.93" duration="16.00" routeLength="180.50" waitingTime="0.00" waitingCount="0" stopTime="0.00" timeLoss="3.30" rerouteNo="0" devices="tripinfo_270" vType="DEFAULT_VEHTYPE" speedFactor="1.09" vaporized=""/>
    <tripinfo id="209" depart="28.00" departLane="227_4way_178to4way_163_0" departPos="5.10" departSpeed="0.00" departDelay="0.14" arrival="54.00" arrivalLane="175_4way_148to4way_133_0" arrivalPos="85.60" arrivalSpeed="12.87" duration="26.00" routeLength="280.50" waitingTime="0.00" waitingCount="0" stopTime="0.00" timeLoss="4.14" rerouteNo="0" devices="tripinfo_209" vType="DEFAULT_VEHTYPE" speedFactor="0.95" vaporized=""/>
    <tripinfo id="223" depart="30.00" departLane="114_4way_87to4way_102_0" departPos="5.10" departSpeed="0.00" departDelay="0.27" arrival="55.00" arrivalLane="148_4way_117to4way_118_0" arrivalPos="85.60" arrivalSpeed="13.67" duration="25.00" routeLength="275.13" waitingTime="0.00" waitingCount="0" stopTime="0.00" timeLoss="5.15" rerouteNo="0" devices="tripinfo_223" vType="DEFAULT_VEHTYPE" speedFactor="1.03" vaporized=""/>
    <tripinfo id="331" depart="45.00" departLane="233_4way_168to4way_183_0" departPos="5.10" departSpeed="0.00" departDelay="0.88" arrival="55.00" arrivalLane="233_4way_168to4way_183_0" arrivalPos="85.60" arrivalSpeed="11.89" duration="10.00" routeLength="80.50" waitingTime="0.00" waitingCount="0" stopTime="0.00" timeLoss="3.19" rerouteNo="0" devices="tripinfo_331" vType="DEFAULT_VEHTYPE" speedFactor="0.94" vaporized=""/>
    <tripinfo id="350" depart="47.00" departLane="8_3way_104to3way_89_0" departPos="5.10" departSpeed="0.00" departDelay="0.34" arrival="56.00" arrivalLane="8_3way_104to3way_89_0" arrivalPos="85.60" arrivalSpeed="14.53" duration="9.00" routeLength="80.50" waitingTime="0.00" waitingCount="0" stopTime="0.00" timeLoss="2.98" rerouteNo="0" devices="tripinfo_350" vType="DEFAULT_VEHTYPE" speedFactor="1.07" vaporized=""/>
    <tripinfo id="204" depart="28.00" departLane="345_4way_64to4way_49_0" departPos="5.10" departSpeed="0.00" departDelay="0.81" arrival="59.00" arrivalLane="81_4way_19to3way_4_0" arrivalPos="85.60" arrivalSpeed="15.14" duration="31.00" routeLength="380.50" waitingTime="0.00" waitingCount="0" stopTime="0.00" timeLoss="5.95" rerouteNo="0" devices="tripinfo_204" vType="DEFAULT_VEHTYPE" speedFactor="1.12" vaporized=""/>
    <tripinfo id="317" depart="43.00" departLane="37_3way_179to3way_194_0" departPos="5.10" departSpeed="0.00" departDelay="0.74" arrival="59.00" arrivalLane="41_3way_194to3way_209_0" arrivalPos="85.60" arrivalSpeed="14.48" duration="16.00" routeLength="180.50" waitingTime="0.00" waitingCount="0" stopTime="0.00" timeLoss="3.41" rerouteNo="0" devices="tripinfo_317" vType="DEFAULT_VEHTYPE" speedFactor="1.11" vaporized=""/>
    <tripinfo id="37" depart="5.00" departLane="103_3way_9to4way_24_0" departPos="5.10" departSpeed="0.00" departDelay="0.07" arrival="67.00" arrivalLane="142_4way_114to4way_129_0" arrivalPos="85.60" arrivalSpeed="13.36" duration="62.00" routeLength="780.50" waitingTime="0.00" waitingCount="0" stopTime="0.00" timeLoss="5.15" rerouteNo="0" devices="tripinfo_37" vType="DEFAULT_VEHTYPE" speedFactor="0.99" vaporized=""/>
    <tripinfo id="176" depart="24.00" departLane="160_4way_140to4way_125_0" departPos="5.10" departSpeed="0.00" departDelay="0.54" arrival="67.00" arrivalLane="394_4way_80to4way_79_0" arrivalPos="85.60" arrivalSpeed="12.81" duration="43.00" routeLength="475.13" waitingTime="0.00" waitingCount="0" stopTime="0.00" timeLoss="6.13" rerouteNo="0" devices="tripinfo_176" vType="DEFAULT_VEHTYPE" speedFactor="0.97" vaporized=""/>
    <tripinfo id="307" depart="41.00" departLane="328_4way_53to4way_38_0" departPos="5.10" departSpeed="0.00" departDelay="0.08" arrival="67.00" arrivalLane="300_4way_23to4way_22_0" arrivalPos="85.60" arrivalSpeed="14.31" duration="26.00" routeLength="275.13" waitingTime="0.00" waitingCount="0" stopTime="0.00" timeLoss="6.27" rerouteNo="0" devices="tripinfo_307" vType="DEFAULT_VEHTYPE" speedFactor="1.04" vaporized=""/>
    <tripinfo id="430" depart="58.00" departLane="228_4way_167to4way_166_0" departPos="5.10" departSpeed="0.00" departDelay="0.68" arrival="68.00" arrivalLane="228_4way_167to4way_166_0" arrivalPos="85.60" arrivalSpeed="12.43" duration="10.00" routeLength="80.50" waitingTime="0.00" waitingCount="0" stopTime="0.00" timeLoss="2.84" rerouteNo="0" devices="tripinfo_430" vType="DEFAULT_VEHTYPE" speedFactor="0.90" vaporized=""/>
    <tripinfo id="108" depart="15.00" departLane="125_4way_108to4way_93_0" departPos="5.10" departSpeed="0.00" departDelay="0.60" arrival="70.00" arrivalLane="410_4way_93to4way_92_0" arrivalPos="85.60" arrivalSpeed="6.04" duration="55.00" routeLength="175.13" waitingTime="30.00" waitingCount="1" stopTime="0.00" timeLoss="39.97" rerouteNo="0" devices="tripinfo_108" vType="DEFAULT_VEHTYPE" speedFactor="0.88" vaporized=""/>
    <tripinfo id="249" depart="34.00" departLane="368_4way_78to4way_63_0" departPos="5.10" departSpeed="0.00" departDelay="0.81" arrival="70.00" arrivalLane="365_4way_63to4way_62_0" arrivalPos="85.60" arrivalSpeed="5.51" duration="36.00" routeLength="175.13" waitingTime="14.00" waitingCount="1" stopTime="0.00" timeLoss="24.14" rerouteNo="0" devices="tripinfo_249" vType="DEFAULT_VEHTYPE" speedFactor="1.12" vaporized=""/>
    <tripinfo id="255" depart="34.00" departLane="165_4way_128to4way_129_0" departPos="5.10" departSpeed="0.00" departDelay="0.01" arrival="71.00" arrivalLane="165_4way_128to4way_129_0" arrivalPos="85.60" arrivalSpeed="6.26" duration="37.00" routeLength="80.50" waitingTime="21.00" waitingCount="1" stopTime="0.00" timeLoss="28.84" rerouteNo="0" devices="tripinfo_255" vType="DEFAULT_VEHTYPE" speedFactor="0.76" vaporized=""/>
    <tripinfo id="342" depart="46.00" departLane="243_4way_172to4way_187_0" departPos="5.10" departSpeed="0.00" departDelay="0.41" arrival="71.00" arrivalLane="292_4way_202to4way_203_0" arrivalPos="85.60" arrivalSpeed="13.99" duration="25.00" routeLength="275.13" waitingTime="0.00" waitingCount="0" stopTime="0.00" timeLoss="5.63" rerouteNo="0" devices="tripinfo_342" vType="DEFAULT_VEHTYPE" speedFactor="1.06" vaporized=""/>
    <tripinfo id="312" depart="42.00" departLane="272_4way_188to4way_203_0" departPos="5.10" departSpeed="0.00" departDelay="0.41" arrival="72.00" arrivalLane="293_4way_203to4way_204_0" arrivalPos="85.60" arrivalSpeed="6.93" duration="30.00" routeLength="175.13" waitingTime="7.00" waitingCount="1" stopTime="0.00" timeLoss="16.59" rerouteNo="0" devices="tripinfo_312" vType="DEFAULT_VEHTYPE" speedFactor="0.98" vaporized=""/>
    <tripinfo id="82" depart="11.00" departLane="171_4way_131to4way_132_0" departPos="5.10" departSpeed="0.00" departDelay="0.07" arrival="77.00" arrivalLane="173_4way_132to4way_133_0" arrivalPos="85.60" arrivalSpeed="12.69" duration="66.00" routeLength="180.50" waitingTime="42.00" waitingCount="1" stopTime="0.00" timeLoss="52.60" rerouteNo="0" devices="tripinfo_82" vType="DEFAULT_VEHTYPE" speedFactor="0.99" vaporized=""/>
    <tripinfo id="93" depart="13.00" departLane="298_4way_22to4way_21_0" departPos="5.10" departSpeed="0.00" departDelay="0.60" arrival="77.00" arrivalLane="299_4way_21to4way_36_0" arrivalPos="85.60" arrivalSpeed="12.75" duration="64.00" routeLength="175.13" waitingTime="42.00" waitingCount="1" stopTime="0.00" timeLoss="50.34" rerouteNo="0" devices="tripinfo_93" vType="DEFAULT_VEHTYPE" speedFactor="1.00" vaporized=""/>
    <tripinfo id="150" depart="20.00" departLane="357_4way_55to4way_70_0" departPos="5.10" departSpeed="0.00" departDelay="0.00" arrival="77.00" arrivalLane="109_4way_101to4way_102_0" arrivalPos="85.60" arrivalSpeed="11.65" duration="57.00" routeLength="475.13" waitingTime="8.00" waitingCount="1" stopTime="0.00" timeLoss="19.12" rerouteNo="0" devices="tripinfo_150" vType="DEFAULT_VEHTYPE" speedFactor="0.92" vaporized=""/>
    <tripinfo id="159" depart="25.00" departLane="405_4way_84to4way_99_0" departPos="5.10" departSpeed="0.00" departDelay="3.80" arrival="77.00" arrivalLane="194_4way_145to4way_146_0" arrivalPos="85.60" arrivalSpeed="13.56" duration="52.00" routeLength="575.13" waitingTime="0.00" waitingCount="0" stopTime="0.00" timeLoss="8.65" rerouteNo="0" devices="tripinfo_159" vType="DEFAULT_VEHTYPE" speedFactor="0.99" vaporized=""/>
    <tripinfo id="304" depart="41.00" departLane="203_4way_152to4way_153_0" departPos="5.10" departSpeed="0.00" departDelay="0.48" arrival="77.00" arrivalLane="205_4way_153to4way_154_0" arrivalPos="85.60" arrivalSpeed="12.96" duration="36.00" routeLength="180.50" waitingTime="13.00" waitingCount="1" stopTime="0.00" timeLoss="22.67" rerouteNo="0" devices="tripinfo_304" vType="DEFAULT_VEHTYPE" speedFactor="1.00" vaporized=""/>
    <tripinfo id="186" depart="25.00" departLane="243_4way_172to4way_187_0" departPos="5.10" departSpeed="0.00" departDelay="0.21" arrival="78.00" arrivalLane="271_4way_188to4way_189_0" arrivalPos="85.60" arrivalSpeed="11.42" duration="53.00" routeLength="275.13" waitingTime="17.00" waitingCount="1" stopTime="0.00" timeLoss="28.78" rerouteNo="0" devices="tripinfo_186" vType="DEFAULT_VEHTYPE" speedFactor="0.87" vaporized=""/>
    <tripinfo id="127" depart="17.00" departLane="8_3way_104to3way_89_0" departPos="5.10" departSpeed="0.00" departDelay="0.07" arrival="79.00" arrivalLane="408_4way_88to4way_87_0" arrivalPos="85.60" arrivalSpeed="13.46" duration="62.00" routeLength="275.13" waitingTime="28.00" waitingCount="1" stopTime="0.00" timeLoss="41.51" rerouteNo="0" devices="tripinfo_127" vType="DEFAULT_VEHTYPE" speedFactor="1.00" vaporized=""/>
    <tripinfo id="272" depart="37.00" departLane="246_4way_175to4way_174_0" departPos="5.10" departSpeed="0.00" departDelay="0.74" arrival="79.00" arrivalLane="244_4way_174to4way_173_0" arrivalPos="85.60" arrivalSpeed="9.75" duration="42.00" routeLength="180.50" waitingTime="16.00" waitingCount="1" stopTime="0.00" timeLoss="23.58" rerouteNo="0" devices="tripinfo_272" vType="DEFAULT_VEHTYPE" speedFactor="0.72" vaporized=""/>
    <tripinfo id="455" depart="61.00" departLane="28_3way_149to4way_148_0" departPos="5.10" departSpeed="0.00" departDelay="0.35" arrival="79.00" arrivalLane="28_3way_149to4way_148_0" arrivalPos="85.60" arrivalSpeed="13.70" duration="18.00" routeLength="80.50" waitingTime="3.00" waitingCount="1" stopTime="0.00" timeLoss="11.76" rerouteNo="0" devices="tripinfo_455" vType="DEFAULT_VEHTYPE" speedFactor="1.08" vaporized=""/>
    <tripinfo id="158" depart="22.00" departLane="134_4way_111to4way_96_0" departPos="5.10" departSpeed="0.00" departDelay="0.94" arrival="81.00" arrivalLane="319_4way_35to4way_34_0" arrivalPos="85.60" arrivalSpeed="12.19" duration="59.00" routeLength="675.13" waitingTime="0.00" waitingCount="0" stopTime="0.00" timeLoss="6.70" rerouteNo="0" devices="tripinfo_158" vType="DEFAULT_VEHTYPE" speedFactor="0.96" vaporized=""/>
    <tripinfo id="489" depart="66.00" departLane="194_4way_145to4way_146_0" departPos="5.10" departSpeed="0.00" departDelay="0.82" arrival="81.00" arrivalLane="196_4way_146to4way_147_0" arrivalPos="85.60" arrivalSpeed="15.88" duration="15.00" routeLength="180.50" waitingTime="0.00" waitingCount="0" stopTime="0.00" timeLoss="3.62" rerouteNo="0" devices="tripinfo_489" vType="DEFAULT_VEHTYPE" speedFactor="1.15" vaporized=""/>
    <tripinfo id="77" depart="11.00" departLane="110_4way_101to4way_116_0" departPos="5.10" departSpeed="0.00" departDelay="0.74" arrival="83.00" arrivalLane="69_3way_221to3way_222_0" arrivalPos="85.60" arrivalSpeed="13.22" duration="72.00" routeLength="875.13" waitingTime="0.00" waitingCount="0" stopTime="0.00" timeLoss="7.62" rerouteNo="0" devices="tripinfo_77" vType="DEFAULT_VEHTYPE" speedFactor="0.99" vaporized=""/>
    <tripinfo id="247" depart="33.00" departLane="232_4way_168to4way_169_0" departPos="5.10" departSpeed="0.00" departDelay="0.07" arrival="83.00" arrivalLane="208_4way_169to4way_154_0" arrivalPos="85.60" arrivalSpeed="14.02" duration="50.00" routeLength="175.13" waitingTime="26.00" waitingCount="1" stopTime="0.00" timeLoss="37.21" rerouteNo="0" devices="tripinfo_247" vType="DEFAULT_VEHTYPE" speedFactor="1.07" vaporized=""/>
    <tripinfo id="10" depart="2.00" departLane="170_4way_130to4way_145_0" departPos="5.10" departSpeed="0.00" departDelay="0.67" arrival="84.00" arrivalLane="198_4way_147to4way_148_0" arrivalPos="85.60" arrivalSpeed="13.23" duration="82.00" routeLength="375.13" waitingTime="42.00" waitingCount="1" stopTime="0.00" timeLoss="54.91" rerouteNo="0" devices="tripinfo_10" vType="DEFAULT_VEHTYPE" speedFactor="1.04" vaporized=""/>
    <tripinfo id="323" depart="44.00" departLane="28_3way_149to4way_148_0" departPos="5.10" departSpeed="0.00" departDelay="0.94" arrival="87.00" arrivalLane="196_4way_147to4way_146_0" arrivalPos="85.60" arrivalSpeed="15.97" duration="43.00" routeLength="280.50" waitingTime="13.00" waitingCount="1" stopTime="0.00" timeLoss="25.37" rerouteNo="0" devices="tripinfo_323" vType="DEFAULT_VEHTYPE" speedFactor="1.15" vaporized=""/>
    <tripinfo id="359" depart="48.00" departLane="223_4way_162to4way_161_0" departPos="5.10" departSpeed="0.00" departDelay="0.14" arrival="87.00" arrivalLane="217_4way_160to4way_159_0" arrivalPos="85.60" arrivalSpeed="12.39" duration="39.00" routeLength="280.50" waitingTime="8.00" waitingCount="1" stopTime="0.00" timeLoss="17.27" rerouteNo="0" devices="tripinfo_359" vType="DEFAULT_VEHTYPE" speedFactor="0.94" vaporized=""/>
    <tripinfo id="388" depart="56.00" departLane="406_4way_86to4way_85_0" departPos="5.10" departSpeed="0.00" departDelay="4.28" arrival="87.00" arrivalLane="357_4way_70to4way_55_0" arrivalPos="85.60" arrivalSpeed="12.26" duration="31.00" routeLength="280.30" waitingTime="1.00" waitingCount="1" stopTime="0.00" timeLoss="8.83" rerouteNo="0" devices="tripinfo_388" vType="DEFAULT_VEHTYPE" speedFactor="0.95" vaporized=""/>
    <tripinfo id="203" depart="28.00" departLane="94_3way_8to3way_7_0" departPos="5.10" departSpeed="0.00" departDelay="0.94" arrival="88.00" arrivalLane="401_4way_82to4way_97_0" arrivalPos="85.60" arrivalSpeed="13.16" duration="60.00" routeLength="675.13" waitingTime="0.00" waitingCount="0" stopTime="0.00" timeLoss="7.07" rerouteNo="0" devices="tripinfo_203" vType="DEFAULT_VEHTYPE" speedFactor="0.95" vaporized=""/>
    <tripinfo id="592" depart="79.00" departLane="302_4way_23to4way_24_0" departPos="5.10" departSpeed="0.00" departDelay="0.09" arrival="88.00" arrivalLane="302_4way_23to4way_24_0" arrivalPos="85.60" arrivalSpeed="13.32" duration="9.00" routeLength="80.50" waitingTime="0.00" waitingCount="0" stopTime="0.00" timeLoss="3.16" rerouteNo="0" devices="tripinfo_592" vType="DEFAULT_VEHTYPE" speedFactor="1.05" vaporized=""/>
    <tripinfo id="120" depart="16.00" departLane="41_3way_209to3way_194_0" departPos="5.10" departSpeed="0.00" departDelay="0.00" arrival="89.00" arrivalLane="196_4way_147to4way_146_0" arrivalPos="85.60" arrivalSpeed="13.95" duration="73.00" routeLength="675.13" waitingTime="7.00" waitingCount="1" stopTime="0.00" timeLoss="26.48" rerouteNo="0" devices="tripinfo_120" vType="DEFAULT_VEHTYPE" speedFactor="1.06" vaporized=""/>
    <tripinfo id="310" depart="42.00" departLane="246_4way_175to4way_174_0" departPos="5.10" departSpeed="0.00" departDelay="0.68" arrival="89.00" arrivalLane="242_4way_173to4way_172_0" arrivalPos="85.60" arrivalSpeed="12.55" duration="47.00" routeLength="280.50" waitingTime="15.00" waitingCount="1" stopTime="0.00" timeLoss="24.75" rerouteNo="0" devices="tripinfo_310" vType="DEFAULT_VEHTYPE" speedFactor="0.94" vaporized=""/>
    <tripinfo id="257" depart="35.00" departLane="204_4way_167to4way_152_0" departPos="5.10" departSpeed="0.00" departDelay="0.74" arrival="92.00" arrivalLane="12_4way_106to3way_105_0" arrivalPos="85.60" arrivalSpeed="10.35" duration="57.00" routeLength="575.13" waitingTime="0.00" waitingCount="0" stopTime="0.00" timeLoss="6.08" rerouteNo="0" devices="tripinfo_257" vType="DEFAULT_VEHTYPE" speedFactor="0.83" vaporized=""/>
    <tripinfo id="535" depart="72.00" departLane="36_3way_165to4way_166_0" departPos="5.10" departSpeed="0.00" departDelay="0.68" arrival="92.00" arrivalLane="202_4way_166to4way_151_0" arrivalPos="85.60" arrivalSpeed="12.99" duration="20.00" routeLength="175.13" waitingTime="0.00" waitingCount="0" stopTime="0.00" timeLoss="5.37" rerouteNo="0" devices="tripinfo_535" vType="DEFAULT_VEHTYPE" speedFactor="0.96" vaporized=""/>
    <tripinfo id="142" depart="19.00" departLane="62_3way_217to4way_202_0" departPos="5.10" departSpeed="0.00" departDelay="0.07" arrival="97.00" arrivalLane="259_4way_183to4way_182_0" arrivalPos="85.60" arrivalSpeed="14.68" duration="78.00" routeLength="675.13" waitingTime="20.00" waitingCount="1" stopTime="0.00" timeLoss="32.44" rerouteNo="0" devices="tripinfo_142" vType="DEFAULT_VEHTYPE" speedFactor="1.09" vaporized=""/>
    <tripinfo id="380" depart="51.00" departLane="203_4way_152to4way_153_0" departPos="5.10" departSpeed="0.00" departDelay="0.35" arrival="98.00" arrivalLane="158_4way_139to4way_124_0" arrivalPos="85.60" arrivalSpeed="12.54" duration="47.00" routeLength="375.13" waitingTime="4.00" waitingCount="1" stopTime="0.00" timeLoss="16.59" rerouteNo="0" devices="tripinfo_380" vType="DEFAULT_VEHTYPE" speedFactor="0.95" vaporized=""/>
    <tripinfo id="133" depart="22.00" departLane="268_4way_201to4way_186_0" departPos="5.10" departSpeed="0.00" departDelay="4.27" arrival="99.00" arrivalLane="228_4way_167to4way_166_0" arrivalPos="85.60" arrivalSpeed="13.92" duration="77.00" routeLength="675.13" waitingTime="15.00" waitingCount="1" stopTime="0.00" timeLoss="28.02" rerouteNo="0" devices="tripinfo_133" vType="DEFAULT_VEHTYPE" speedFactor="1.01" vaporized=""/>
    <tripinfo id="222" depart="30.00" departLane="225_4way_163to4way_162_0" departPos="5.10" departSpeed="0.00" departDelay="0.41" arrival="99.00" arrivalLane="249_4way_175to4way_190_0" arrivalPos="85.60" arrivalSpeed="14.55" duration="69.00" routeLength="475.13" waitingTime="25.00" waitingCount="1" stopTime="0.00" timeLoss="37.06" rerouteNo="0" devices="tripinfo_222" vType="DEFAULT_VEHTYPE" speedFactor="1.10" vaporized=""/>
    <tripinfo id="513" depart="69.00" departLane="69_3way_221to3way_222_0" departPos="5.10" departSpeed="0.00" departDelay="0.62" arrival="99.00" arrivalLane="73_3way_223to4way_208_0" arrivalPos="85.60" arrivalSpeed="11.60" duration="30.00" routeLength="275.13" waitingTime="0.00" waitingCount="0" stopTime="0.00" timeLoss="5.61" rerouteNo="0" devices="tripinfo_513" vType="DEFAULT_VEHTYPE" speedFactor="0.85" vaporized=""/>
    <tripinfo id="92" depart="13.00" departLane="137_4way_97to4way_112_0" departPos="5.10" departSpeed="0.00" departDelay="0.74" arrival="105.00" arrivalLane="279_4way_191to4way_192_0" arrivalPos="85.60" arrivalSpeed="14.71" duration="92.00" routeLength="1075.13" waitingTime="2.00" waitingCount="1" stopTime="0.00" timeLoss="22.85" rerouteNo="0" devices="tripinfo_92" vType="DEFAULT_VEHTYPE" speedFactor="1.13" vaporized=""/>
    <tripinfo id="86" depart="12.00" departLane="80_3way_5to3way_4_0" departPos="5.10" departSpeed="0.00" departDelay="0.54" arrival="106.00" arrivalLane="10_3way_105to3way_120_0" arrivalPos="85.60" arrivalSpeed="14.71" duration="94.00" routeLength="1277.30" waitingTime="0.00" waitingCount="0" stopTime="0.00" timeLoss="6.75" rerouteNo="0" devices="tripinfo_86" vType="DEFAULT_VEHTYPE" speedFactor="1.06" vaporized=""/>
    <tripinfo id="374" depart="50.00" departLane="374_4way_81to4way_66_0" departPos="5.10" departSpeed="0.00" departDelay="0.15" arrival="106.00" arrivalLane="315_4way_33to4way_32_0" arrivalPos="85.60" arrivalSpeed="13.34" duration="56.00" routeLength="675.13" waitingTime="0.00" waitingCount="0" stopTime="0.00" timeLoss="6.52" rerouteNo="0" devices="tripinfo_374" vType="DEFAULT_VEHTYPE" speedFactor="1.01" vaporized=""/>
    <tripinfo id="629" depart="84.00" departLane="209_4way_156to4way_155_0" departPos="5.10" departSpeed="0.00" departDelay="0.15" arrival="112.00" arrivalLane="208_4way_154to4way_169_0" arrivalPos="85.60" arrivalSpeed="11.43" duration="28.00" routeLength="275.13" waitingTime="0.00" waitingCount="0" stopTime="0.00" timeLoss="5.49" rerouteNo="0" devices="tripinfo_629" vType="DEFAULT_VEHTYPE" speedFactor="0.91" vaporized=""/>
    <tripinfo id="377" depart="51.00" departLane="3_3way_1to4way_16_0" departPos="5.10" departSpeed="0.00" departDelay="0.75" arrival="115.00" arrivalLane="390_4way_77to4way_78_0" arrivalPos="85.60" arrivalSpeed="12.26" duration="64.00" routeLength="675.13" waitingTime="0.00" waitingCount="0" stopTime="0.00" timeLoss="10.31" rerouteNo="0" devices="tripinfo_377" vType="DEFAULT_VEHTYPE" speedFactor="0.93" vaporized=""/>
    <tripinfo id="763" depart="102.00" departLane="227_4way_163to4way_178_0" departPos="5.10" departSpeed="0.00" departDelay="0.29" arrival="123.00" arrivalLane="38_4way_178to3way_179_0" arrivalPos="85.60" arrivalSpeed="10.71" duration="21.00" routeLength="175.13" waitingTime="0.00" waitingCount="0" stopTime="0.00" timeLoss="5.16" rerouteNo="0" devices="tripinfo_763" vType="DEFAULT_VEHTYPE" speedFactor="0.86" vaporized=""/>
    <tripinfo id="617" depart="83.00" departLane="74_3way_29to3way_44_0" departPos="5.10" departSpeed="0.00" departDelay="0.75" arrival="124.00" arrivalLane="8_3way_89to3way_104_0" arrivalPos="85.60" arrivalSpeed="12.58" duration="41.00" routeLength="480.50" waitingTime="0.00" waitingCount="0" stopTime="0.00" timeLoss="4.53" rerouteNo="0" devices="tripinfo_617" vType="DEFAULT_VEHTYPE" speedFactor="0.96" vaporized=""/>
    <tripinfo id="607" depart="81.00" departLane="59_3way_217to3way_216_0" departPos="5.10" departSpeed="0.00" departDelay="0.09" arrival="126.00" arrivalLane="51_3way_213to3way_212_0" arrivalPos="85.60" arrivalSpeed="10.81" duration="45.00" routeLength="480.50" waitingTime="0.00" waitingCount="0" stopTime="0.00" timeLoss="4.83" rerouteNo="0" devices="tripinfo_607" vType="DEFAULT_VEHTYPE" speedFactor="0.87" vaporized=""/>
    <tripinfo id="25" depart="4.00" departLane="128_4way_94to4way_109_0" departPos="5.10" departSpeed="0.00" departDelay="0.67" arrival="130.00" arrivalLane="209_4way_155to4way_156_0" arrivalPos="85.60" arrivalSpeed="5.17" duration="126.00" routeLength="575.13" waitingTime="64.00" waitingCount="2" stopTime="0.00" timeLoss="81.77" rerouteNo="0" devices="tripinfo_25" vType="DEFAULT_VEHTYPE" speedFactor="0.95" vaporized=""/>