<?xml version="1.0" encoding="UTF-8"?>

<!-- generated on 2023-11-25 07:17:44 by Eclipse SUMO sumo Version 1.12.0
<configuration xmlns:xsi="http://www.w3.org/2001/XMLSchema-instance" xsi:noNamespaceSchemaLocation="http://sumo.dlr.de/xsd/sumoConfiguration.xsd">

    <input>
        <net-file value="../../data_generation/sapporo_HY.net.xml"/>
        <route-files value="../../data_generation/sapporo_HY.rou.xml"/>
    </input>

    <output>
        <tripinfo-output value="tripinfo.xml"/>
        <statistic-output value="statistic.xml"/>
    </output>

    <time>
        <begin value="0"/>
        <end value="3600"/>
    </time>

    <processing>
        <time-to-teleport value="-1"/>
    </processing>

    <traci_server>
        <remote-port value="55935"/>
    </traci_server>

    <random_number>
        <seed value="1"/>
    </random_number>

    <gui_only>
        <gui-settings-file value="../../data_generation/view_HY_0402.xml"/>
    </gui_only>

</configuration>
-->

<tripinfos xmlns:xsi="http://www.w3.org/2001/XMLSchema-instance" xsi:noNamespaceSchemaLocation="http://sumo.dlr.de/xsd/tripinfo_file.xsd">
    <tripinfo id="7" depart="4.00" departLane="12_3way_B10to3way_A09_0" departPos="5.10" departSpeed="0.00" departDelay="0.85" arrival="22.00" arrivalLane="12_3way_B10to3way_A09_0" arrivalPos="182.40" arrivalSpeed="11.93" duration="18.00" routeLength="177.30" waitingTime="0.00" waitingCount="0" stopTime="0.00" timeLoss="3.35" rerouteNo="0" devices="tripinfo_7" vType="DEFAULT_VEHTYPE" speedFactor="0.92" vaporized=""/>
    <tripinfo id="16" depart="8.00" departLane="32_3way_D05to4way_D04_0" departPos="5.10" departSpeed="0.00" departDelay="0.80" arrival="26.00" arrivalLane="23_4way_D04to3way_C04_0" arrivalPos="85.60" arrivalSpeed="14.35" duration="18.00" routeLength="180.30" waitingTime="0.00" waitingCount="0" stopTime="0.00" timeLoss="4.67" rerouteNo="0" devices="tripinfo_16" vType="DEFAULT_VEHTYPE" speedFactor="1.09" vaporized=""/>
    <tripinfo id="51" depart="23.00" departLane="83_4way_D06to4way_D07_0" departPos="5.10" departSpeed="0.00" departDelay="0.05" arrival="32.00" arrivalLane="83_4way_D06to4way_D07_0" arrivalPos="85.60" arrivalSpeed="14.54" duration="9.00" routeLength="80.50" waitingTime="0.00" waitingCount="0" stopTime="0.00" timeLoss="3.16" rerouteNo="0" devices="tripinfo_51" vType="DEFAULT_VEHTYPE" speedFactor="1.09" vaporized=""/>
    <tripinfo id="1" depart="1.00" departLane="32_4way_D04to3way_D05_0" departPos="5.10" departSpeed="0.00" departDelay="0.55" arrival="35.00" arrivalLane="85_4way_D07to4way_D08_0" arrivalPos="85.60" arrivalSpeed="12.51" duration="34.00" routeLength="380.50" waitingTime="0.00" waitingCount="0" stopTime="0.00" timeLoss="4.45" rerouteNo="0" devices="tripinfo_1" vType="DEFAULT_VEHTYPE" speedFactor="0.94" vaporized=""/>
    <tripinfo id="65" depart="30.00" departLane="83_4way_D07to4way_D06_0" departPos="5.10" departSpeed="0.00" departDelay="0.75" arrival="39.00" arrivalLane="83_4way_D07to4way_D06_0" arrivalPos="85.60" arrivalSpeed="13.98" duration="9.00" routeLength="80.50" waitingTime="0.00" waitingCount="0" stopTime="0.00" timeLoss="3.25" rerouteNo="0" devices="tripinfo_65" vType="DEFAULT_VEHTYPE" speedFactor="1.04" vaporized=""/>
    <tripinfo id="28" depart="13.00" departLane="27_3way_C10to3way_D10_0" departPos="5.10" departSpeed="0.00" departDelay="0.40" arrival="42.00" arrivalLane="46_3way_F10to3way_G10_0" arrivalPos="85.60" arrivalSpeed="14.88" duration="29.00" routeLength="380.50" waitingTime="0.00" waitingCount="0" stopTime="0.00" timeLoss="4.23" rerouteNo="0" devices="tripinfo_28" vType="DEFAULT_VEHTYPE" speedFactor="1.14" vaporized=""/>
    <tripinfo id="73" depart="33.00" departLane="47_4way_F09to3way_F10_0" departPos="5.10" departSpeed="0.00" departDelay="0.15" arrival="42.00" arrivalLane="47_4way_F09to3way_F10_0" arrivalPos="85.60" arrivalSpeed="12.44" duration="9.00" routeLength="80.50" waitingTime="0.00" waitingCount="0" stopTime="0.00" timeLoss="2.57" rerouteNo="0" devices="tripinfo_73" vType="DEFAULT_VEHTYPE" speedFactor="0.92" vaporized=""/>
    <tripinfo id="52" depart="24.00" departLane="125_4way_G06to4way_G05_0" departPos="5.10" departSpeed="0.00" departDelay="0.60" arrival="44.00" arrivalLane="61_4way_G05to3way_H05_0" arrivalPos="85.60" arrivalSpeed="12.18" duration="20.00" routeLength="175.13" waitingTime="0.00" waitingCount="0" stopTime="0.00" timeLoss="5.12" rerouteNo="0" devices="tripinfo_52" vType="DEFAULT_VEHTYPE" speedFactor="0.89" vaporized=""/>
    <tripinfo id="77" depart="35.00" departLane="11_3way_A08to4way_B08_0" departPos="5.10" departSpeed="0.00" departDelay="0.35" arrival="45.00" arrivalLane="11_3way_A08to4way_B08_0" arrivalPos="85.60" arrivalSpeed="10.14" duration="10.00" routeLength="80.50" waitingTime="0.00" waitingCount="0" stopTime="0.00" timeLoss="2.90" rerouteNo="0" devices="tripinfo_77" vType="DEFAULT_VEHTYPE" speedFactor="0.82" vaporized=""/>
    <tripinfo id="80" depart="36.00" departLane="119_4way_F08to4way_G08_0" departPos="5.10" departSpeed="0.00" departDelay="0.00" arrival="46.00" arrivalLane="119_4way_F08to4way_G08_0" arrivalPos="85.60" arrivalSpeed="10.35" duration="10.00" routeLength="80.50" waitingTime="0.00" waitingCount="0" stopTime="0.00" timeLoss="2.01" rerouteNo="0" devices="tripinfo_80" vType="DEFAULT_VEHTYPE" speedFactor="0.78" vaporized=""/>
    <tripinfo id="81" depart="37.00" departLane="3_4way_B04to3way_A04_0" departPos="5.10" departSpeed="0.00" departDelay="0.55" arrival="47.00" arrivalLane="3_4way_B04to3way_A04_0" arrivalPos="85.60" arrivalSpeed="13.16" duration="10.00" routeLength="80.50" waitingTime="0.00" waitingCount="0" stopTime="0.00" timeLoss="4.36" rerouteNo="0" devices="tripinfo_81" vType="DEFAULT_VEHTYPE" speedFactor="1.03" vaporized=""/>
    <tripinfo id="96" depart="45.00" departLane="56_3way_H03to3way_H04_0" departPos="5.10" departSpeed="0.00" departDelay="1.80" arrival="62.00" arrivalLane="58_3way_H04to3way_H05_0" arrivalPos="85.60" arrivalSpeed="13.57" duration="17.00" routeLength="180.50" waitingTime="0.00" waitingCount="0" stopTime="0.00" timeLoss="3.79" rerouteNo="0" devices="tripinfo_96" vType="DEFAULT_VEHTYPE" speedFactor="1.01" vaporized=""/>
    <tripinfo id="45" depart="21.00" departLane="64_3way_H08to3way_H07_0" departPos="5.10" departSpeed="0.00" departDelay="0.75" arrival="68.00" arrivalLane="52_3way_H02to3way_H01_0" arrivalPos="85.60" arrivalSpeed="15.72" duration="47.00" routeLength="680.50" waitingTime="0.00" waitingCount="0" stopTime="0.00" timeLoss="5.29" rerouteNo="0" devices="tripinfo_45" vType="DEFAULT_VEHTYPE" speedFactor="1.19" vaporized=""/>
    <tripinfo id="76" depart="35.00" departLane="34_3way_D05to4way_E05_0" departPos="5.10" departSpeed="0.00" departDelay="0.80" arrival="70.00" arrivalLane="96_4way_E05to4way_F05_0" arrivalPos="85.60" arrivalSpeed="4.65" duration="35.00" routeLength="180.50" waitingTime="14.00" waitingCount="1" stopTime="0.00" timeLoss="22.46" rerouteNo="0" devices="tripinfo_76" vType="DEFAULT_VEHTYPE" speedFactor="1.04" vaporized=""/>
    <tripinfo id="113" depart="51.00" departLane="60_3way_H06to3way_H05_0" departPos="5.10" departSpeed="0.00" departDelay="0.15" arrival="74.00" arrivalLane="56_3way_H04to3way_H03_0" arrivalPos="85.60" arrivalSpeed="14.55" duration="23.00" routeLength="280.50" waitingTime="0.00" waitingCount="0" stopTime="0.00" timeLoss="3.99" rerouteNo="0" devices="tripinfo_113" vType="DEFAULT_VEHTYPE" speedFactor="1.08" vaporized=""/>
    <tripinfo id="18" depart="9.00" departLane="96_4way_E05to4way_F05_0" departPos="5.10" departSpeed="0.00" departDelay="0.90" arrival="76.00" arrivalLane="113_4way_F05to4way_G05_0" arrivalPos="85.60" arrivalSpeed="15.69" duration="67.00" routeLength="180.50" waitingTime="45.00" waitingCount="1" stopTime="0.00" timeLoss="55.92" rerouteNo="0" devices="tripinfo_18" vType="DEFAULT_VEHTYPE" speedFactor="1.19" vaporized=""/>
    <tripinfo id="79" depart="36.00" departLane="103_4way_F09to4way_E09_0" departPos="5.10" departSpeed="0.00" departDelay="0.45" arrival="77.00" arrivalLane="99_4way_E08to4way_E07_0" arrivalPos="85.60" arrivalSpeed="14.06" duration="41.00" routeLength="275.13" waitingTime="9.00" waitingCount="1" stopTime="0.00" timeLoss="20.98" rerouteNo="0" devices="tripinfo_79" vType="DEFAULT_VEHTYPE" speedFactor="1.06" vaporized=""/>
    <tripinfo id="147" depart="67.00" departLane="127_4way_G07to4way_G08_0" departPos="5.10" departSpeed="0.00" departDelay="0.85" arrival="77.00" arrivalLane="127_4way_G07to4way_G08_0" arrivalPos="85.60" arrivalSpeed="15.02" duration="10.00" routeLength="80.50" waitingTime="0.00" waitingCount="0" stopTime="0.00" timeLoss="4.18" rerouteNo="0" devices="tripinfo_147" vType="DEFAULT_VEHTYPE" speedFactor="1.17" vaporized=""/>
    <tripinfo id="135" depart="61.00" departLane="125_4way_G06to4way_G05_0" departPos="5.10" departSpeed="0.00" departDelay="0.25" arrival="81.00" arrivalLane="61_4way_G05to3way_H05_0" arrivalPos="85.60" arrivalSpeed="12.05" duration="20.00" routeLength="175.13" waitingTime="0.00" waitingCount="0" stopTime="0.00" timeLoss="5.85" rerouteNo="0" devices="tripinfo_135" vType="DEFAULT_VEHTYPE" speedFactor="0.94" vaporized=""/>
    <tripinfo id="130" depart="59.00" departLane="108_4way_F03to4way_F04_0" departPos="5.10" departSpeed="0.00" departDelay="0.50" arrival="82.00" arrivalLane="94_4way_F04to4way_E04_0" arrivalPos="85.60" arrivalSpeed="9.57" duration="23.00" routeLength="175.13" waitingTime="0.00" waitingCount="0" stopTime="0.00" timeLoss="5.19" rerouteNo="0" devices="tripinfo_130" vType="DEFAULT_VEHTYPE" speedFactor="0.76" vaporized=""/>
    <tripinfo id="6" depart="3.00" departLane="124_4way_G04to4way_G05_0" departPos="5.10" departSpeed="0.00" departDelay="0.30" arrival="84.00" arrivalLane="34_4way_E05to3way_D05_0" arrivalPos="85.60" arrivalSpeed="13.54" duration="81.00" routeLength="375.13" waitingTime="43.00" waitingCount="1" stopTime="0.00" timeLoss="53.78" rerouteNo="0" devices="tripinfo_6" vType="DEFAULT_VEHTYPE" speedFactor="1.01" vaporized=""/>
    <tripinfo id="154" depart="70.00" departLane="12_3way_B10to3way_A09_0" departPos="5.10" departSpeed="0.00" departDelay="0.70" arrival="87.00" arrivalLane="12_3way_B10to3way_A09_0" arrivalPos="182.40" arrivalSpeed="13.61" duration="17.00" routeLength="177.30" waitingTime="0.00" waitingCount="0" stopTime="0.00" timeLoss="3.87" rerouteNo="0" devices="tripinfo_154" vType="DEFAULT_VEHTYPE" speedFactor="1.03" vaporized=""/>
    <tripinfo id="43" depart="20.00" departLane="91_4way_E04to4way_E03_0" departPos="5.10" departSpeed="0.00" departDelay="0.65" arrival="89.00" arrivalLane="37_3way_E00to3way_F00_0" arrivalPos="85.60" arrivalSpeed="11.51" duration="69.00" routeLength="475.13" waitingTime="17.00" waitingCount="1" stopTime="0.00" timeLoss="29.56" rerouteNo="0" devices="tripinfo_43" vType="DEFAULT_VEHTYPE" speedFactor="0.91" vaporized=""/>
    <tripinfo id="174" depart="79.00" departLane="74_4way_C09to4way_B09_0" departPos="5.10" departSpeed="0.00" departDelay="0.70" arrival="89.00" arrivalLane="74_4way_C09to4way_B09_0" arrivalPos="85.60" arrivalSpeed="11.72" duration="10.00" routeLength="80.50" waitingTime="0.00" waitingCount="0" stopTime="0.00" timeLoss="3.27" rerouteNo="0" devices="tripinfo_174" vType="DEFAULT_VEHTYPE" speedFactor="0.87" vaporized=""/>
    <tripinfo id="179" depart="81.00" departLane="23_3way_C04to4way_D04_0" departPos="5.10" departSpeed="0.00" departDelay="0.45" arrival="90.00" arrivalLane="23_3way_C04to4way_D04_0" arrivalPos="85.60" arrivalSpeed="14.72" duration="9.00" routeLength="80.50" waitingTime="0.00" waitingCount="0" stopTime="0.00" timeLoss="3.08" rerouteNo="0" devices="tripinfo_179" vType="DEFAULT_VEHTYPE" speedFactor="1.09" vaporized=""/>
    <tripinfo id="184" depart="83.00" departLane="90_4way_E01to4way_F01_0" departPos="5.10" departSpeed="0.00" departDelay="0.20" arrival="92.00" arrivalLane="90_4way_E01to4way_F01_0" arrivalPos="85.60" arrivalSpeed="15.95" duration="9.00" routeLength="80.50" waitingTime="0.00" waitingCount="0" stopTime="0.00" timeLoss="3.75" rerouteNo="0" devices="tripinfo_184" vType="DEFAULT_VEHTYPE" speedFactor="1.23" vaporized=""/>
    <tripinfo id="94" depart="43.00" departLane="61_4way_G05to3way_H05_0" departPos="5.10" departSpeed="0.00" departDelay="0.70" arrival="95.00" arrivalLane="64_3way_H07to3way_H08_0" arrivalPos="85.60" arrivalSpeed="13.02" duration="52.00" routeLength="375.13" waitingTime="13.00" waitingCount="1" stopTime="0.00" timeLoss="25.97" rerouteNo="0" devices="tripinfo_94" vType="DEFAULT_VEHTYPE" speedFactor="1.07" vaporized=""/>
    <tripinfo id="206" depart="93.00" departLane="36_4way_D09to3way_D10_0" departPos="5.10" departSpeed="0.00" departDelay="0.30" arrival="104.00" arrivalLane="36_4way_D09to3way_D10_0" arrivalPos="85.60" arrivalSpeed="9.72" duration="11.00" routeLength="80.50" waitingTime="0.00" waitingCount="0" stopTime="0.00" timeLoss="2.95" rerouteNo="0" devices="tripinfo_206" vType="DEFAULT_VEHTYPE" speedFactor="0.76" vaporized=""/>
    <tripinfo id="207" depart="96.00" departLane="128_4way_G09to4way_G08_0" departPos="5.10" departSpeed="0.00" departDelay="2.85" arrival="105.00" arrivalLane="128_4way_G09to4way_G08_0" arrivalPos="85.60" arrivalSpeed="12.28" duration="9.00" routeLength="80.50" waitingTime="0.00" waitingCount="0" stopTime="0.00" timeLoss="2.92" rerouteNo="0" devices="tripinfo_207" vType="DEFAULT_VEHTYPE" speedFactor="0.96" vaporized=""/>
    <tripinfo id="57" depart="26.00" departLane="93_4way_E05to4way_E04_0" departPos="5.10" departSpeed="0.00" departDelay="0.35" arrival="119.00" arrivalLane="105_4way_F01to4way_G01_0" arrivalPos="85.60" arrivalSpeed="7.84" duration="93.00" routeLength="575.13" waitingTime="29.00" waitingCount="1" stopTime="0.00" timeLoss="40.72" rerouteNo="0" devices="tripinfo_57" vType="DEFAULT_VEHTYPE" speedFactor="0.81" vaporized=""/>
    <tripinfo id="224" depart="101.00" departLane="60_3way_H05to3way_H06_0" departPos="5.10" departSpeed="0.00" departDelay="0.20" arrival="119.00" arrivalLane="63_3way_H06to4way_G06_0" arrivalPos="85.60" arrivalSpeed="12.78" duration="18.00" routeLength="175.13" waitingTime="0.00" waitingCount="0" stopTime="0.00" timeLoss="4.70" rerouteNo="0" devices="tripinfo_224" vType="DEFAULT_VEHTYPE" speedFactor="0.99" vaporized=""/>
    <tripinfo id="42" depart="19.00" departLane="124_4way_G04to4way_G05_0" departPos="5.10" departSpeed="0.00" departDelay="0.10" arrival="130.00" arrivalLane="33_3way_D05to4way_D06_0" arrivalPos="85.60" arrivalSpeed="6.24" duration="111.00" routeLength="474.92" waitingTime="58.00" waitingCount="2" stopTime="0.00" timeLoss="78.11" rerouteNo="0" devices="tripinfo_42" vType="DEFAULT_VEHTYPE" speedFactor="1.08" vaporized=""/>
    <tripinfo id="165" depart="75.00" departLane="106_4way_F02to4way_F03_0" departPos="5.10" departSpeed="0.00" departDelay="0.75" arrival="130.00" arrivalLane="106_4way_F02to4way_F03_0" arrivalPos="85.60" arrivalSpeed="4.47" duration="55.00" routeLength="80.50" waitingTime="41.00" waitingCount="1" stopTime="0.00" timeLoss="48.95" rerouteNo="0" devices="tripinfo_165" vType="DEFAULT_VEHTYPE" speedFactor="0.96" vaporized=""/>
    <tripinfo id="265" depart="120.00" departLane="84_4way_E06to4way_D06_0" departPos="5.10" departSpeed="0.00" departDelay="0.75" arrival="130.00" arrivalLane="84_4way_E06to4way_D06_0" arrivalPos="85.60" arrivalSpeed="15.83" duration="10.00" routeLength="80.50" waitingTime="0.00" waitingCount="0" stopTime="0.00" timeLoss="4.23" rerouteNo="0" devices="tripinfo_265" vType="DEFAULT_VEHTYPE" speedFactor="1.17" vaporized=""/>
    <tripinfo id="268" depart="121.00" departLane="85_4way_D07to4way_D08_0" departPos="5.10" departSpeed="0.00" departDelay="0.40" arrival="130.00" arrivalLane="85_4way_D07to4way_D08_0" arrivalPos="85.60" arrivalSpeed="14.43" duration="9.00" routeLength="80.50" waitingTime="0.00" waitingCount="0" stopTime="0.00" timeLoss="3.50" rerouteNo="0" devices="tripinfo_268" vType="DEFAULT_VEHTYPE" speedFactor="1.11" vaporized=""/>
    <tripinfo id="100" depart="45.00" departLane="8_3way_A08to3way_A07_0" departPos="5.10" departSpeed="0.00" departDelay="0.00" arrival="131.00" arrivalLane="4_3way_A06to3way_A05_0" arrivalPos="85.60" arrivalSpeed="5.76" duration="86.00" routeLength="280.50" waitingTime="54.00" waitingCount="2" stopTime="0.00" timeLoss="68.78" rerouteNo="0" devices="tripinfo_100" vType="DEFAULT_VEHTYPE" speedFactor="1.19" vaporized=""/>
    <tripinfo id="193" depart="87.00" departLane="13_4way_B09to3way_A09_0" departPos="5.10" departSpeed="0.00" departDelay="0.15" arrival="132.00" arrivalLane="10_3way_A09to3way_A08_0" arrivalPos="85.60" arrivalSpeed="7.50" duration="45.00" routeLength="175.13" waitingTime="21.00" waitingCount="1" stopTime="0.00" timeLoss="32.44" rerouteNo="0" devices="tripinfo_193" vType="DEFAULT_VEHTYPE" speedFactor="1.05" vaporized=""/>
    <tripinfo id="86" depart="39.00" departLane="111_4way_G04to4way_F04_0" departPos="5.10" departSpeed="0.00" departDelay="0.30" arrival="136.00" arrivalLane="15_4way_B04to3way_B03_0" arrivalPos="85.60" arrivalSpeed="15.36" duration="97.00" routeLength="575.13" waitingTime="42.00" waitingCount="2" stopTime="0.00" timeLoss="61.63" rerouteNo="0" devices="tripinfo_86" vType="DEFAULT_VEHTYPE" speedFactor="1.19" vaporized=""/>
    <tripinfo id="19" depart="9.00" departLane="20_3way_C03to3way_C04_0" departPos="5.10" departSpeed="0.00" departDelay="0.45" arrival="137.00" arrivalLane="22_3way_C04to4way_B04_0" arrivalPos="85.60" arrivalSpeed="13.87" duration="128.00" routeLength="175.13" waitingTime="106.00" waitingCount="1" stopTime="0.00" timeLoss="115.02" rerouteNo="0" devices="tripinfo_19" vType="DEFAULT_VEHTYPE" speedFactor="1.08" vaporized=""/>
    <tripinfo id="44" depart="20.00" departLane="99_4way_E07to4way_E08_0" departPos="5.10" departSpeed="0.00" departDelay="0.20" arrival="137.00" arrivalLane="43_4way_E09to3way_E10_0" arrivalPos="85.60" arrivalSpeed="12.72" duration="117.00" routeLength="280.50" waitingTime="82.00" waitingCount="2" stopTime="0.00" timeLoss="96.57" rerouteNo="0" devices="tripinfo_44" vType="DEFAULT_VEHTYPE" speedFactor="0.99" vaporized=""/>
    <tripinfo id="63" depart="29.00" departLane="74_4way_B09to4way_C09_0" departPos="5.10" departSpeed="0.00" departDelay="0.65" arrival="137.00" arrivalLane="79_4way_C09to4way_D09_0" arrivalPos="85.60" arrivalSpeed="12.51" duration="108.00" routeLength="180.50" waitingTime="85.00" waitingCount="1" stopTime="0.00" timeLoss="93.56" rerouteNo="0" devices="tripinfo_63" vType="DEFAULT_VEHTYPE" speedFactor="0.93" vaporized=""/>
    <tripinfo id="60" depart="27.00" departLane="87_4way_D08to4way_D09_0" departPos="5.10" departSpeed="0.00" departDelay="0.00" arrival="139.00" arrivalLane="74_4way_C09to4way_B09_0" arrivalPos="85.60" arrivalSpeed="14.63" duration="112.00" routeLength="275.13" waitingTime="81.00" waitingCount="1" stopTime="0.00" timeLoss="92.26" rerouteNo="0" devices="tripinfo_60" vType="DEFAULT_VEHTYPE" speedFactor="1.07" vaporized=""/>
    <tripinfo id="169" depart="77.00" departLane="6_3way_A07to3way_A06_0" departPos="5.10" departSpeed="0.00" departDelay="0.95" arrival="139.00" arrivalLane="24_4way_B06to3way_C06_0" arrivalPos="85.60" arrivalSpeed="12.43" duration="62.00" routeLength="275.13" waitingTime="30.00" waitingCount="1" stopTime="0.00" timeLoss="43.18" rerouteNo="0" devices="tripinfo_169" vType="DEFAULT_VEHTYPE" speedFactor="1.14" vaporized=""/>
    <tripinfo id="50" depart="23.00" departLane="33_4way_D06to3way_D05_0" departPos="5.10" departSpeed="0.00" departDelay="0.50" arrival="140.00" arrivalLane="59_4way_G04to3way_H04_0" arrivalPos="85.60" arrivalSpeed="13.08" duration="117.00" routeLength="575.13" waitingTime="63.00" waitingCount="1" stopTime="0.00" timeLoss="75.24" rerouteNo="0" devices="tripinfo_50" vType="DEFAULT_VEHTYPE" speedFactor="1.02" vaporized=""/>
    <tripinfo id="254" depart="115.00" departLane="99_4way_E07to4way_E08_0" departPos="5.10" departSpeed="0.00" departDelay="0.70" arrival="140.00" arrivalLane="89_4way_E09to4way_D09_0" arrivalPos="85.60" arrivalSpeed="15.83" duration="25.00" routeLength="275.13" waitingTime="0.00" waitingCount="0" stopTime="0.00" timeLoss="6.88" rerouteNo="0" devices="tripinfo_254" vType="DEFAULT_VEHTYPE" speedFactor="1.22" vaporized=""/>
    <tripinfo id="136" depart="62.00" departLane="111_4way_F04to4way_G04_0" departPos="5.10" departSpeed="0.00" departDelay="0.80" arrival="142.00" arrivalLane="124_4way_G04to4way_G05_0" arrivalPos="85.60" arrivalSpeed="13.62" duration="80.00" routeLength="175.13" waitingTime="56.00" waitingCount="1" stopTime="0.00" timeLoss="67.11" rerouteNo="0" devices="tripinfo_136" vType="DEFAULT_VEHTYPE" speedFactor="1.02" vaporized=""/>
    <tripinfo id="270" depart="122.00" departLane="112_4way_F05to4way_F06_0" departPos="5.10" departSpeed="0.00" departDelay="0.50" arrival="142.00" arrivalLane="98_4way_F06to4way_E06_0" arrivalPos="85.60" arrivalSpeed="11.57" duration="20.00" routeLength="175.13" waitingTime="0.00" waitingCount="0" stopTime="0.00" timeLoss="5.69" rerouteNo="0" devices="tripinfo_270" vType="DEFAULT_VEHTYPE" speedFactor="0.93" vaporized=""/>
    <tripinfo id="278" depart="126.00" departLane="118_4way_F09to4way_F08_0" departPos="5.10" departSpeed="0.00" departDelay="0.90" arrival="144.00" arrivalLane="119_4way_F08to4way_G08_0" arrivalPos="85.60" arrivalSpeed="14.75" duration="18.00" routeLength="175.13" waitingTime="0.00" waitingCount="0" stopTime="0.00" timeLoss="5.35" rerouteNo="0" devices="tripinfo_278" vType="DEFAULT_VEHTYPE" speedFactor="1.11" vaporized=""/>
    <tripinfo id="281" depart="127.00" departLane="117_4way_G07to4way_F07_0" departPos="5.10" departSpeed="0.00" departDelay="0.55" arrival="146.00" arrivalLane="114_4way_F07to4way_F06_0" arrivalPos="85.60" arrivalSpeed="13.36" duration="19.00" routeLength="175.13" waitingTime="0.00" waitingCount="0" stopTime="0.00" timeLoss="5.34" rerouteNo="0" devices="tripinfo_281" vType="DEFAULT_VEHTYPE" speedFactor="1.01" vaporized=""/>
    <tripinfo id="290" depart="133.00" departLane="8_3way_A08to3way_A07_0" departPos="5.10" departSpeed="0.00" departDelay="2.50" arrival="149.00" arrivalLane="6_3way_A07to3way_A06_0" arrivalPos="85.60" arrivalSpeed="13.88" duration="16.00" routeLength="180.50" waitingTime="0.00" waitingCount="0" stopTime="0.00" timeLoss="5.03" rerouteNo="0" devices="tripinfo_290" vType="DEFAULT_VEHTYPE" speedFactor="1.20" vaporized=""/>
    <tripinfo id="302" depart="136.00" departLane="14_3way_B03to3way_C03_0" departPos="5.10" departSpeed="0.00" departDelay="0.10" arrival="154.00" arrivalLane="20_3way_C03to3way_C04_0" arrivalPos="85.60" arrivalSpeed="14.02" duration="18.00" routeLength="175.13" waitingTime="0.00" waitingCount="0" stopTime="0.00" timeLoss="5.78" rerouteNo="0" devices="tripinfo_302" vType="DEFAULT_VEHTYPE" speedFactor="1.10" vaporized=""/>
    <tripinfo id="202" depart="91.00" departLane="13_4way_B09to3way_A09_0" departPos="5.10" departSpeed="0.00" departDelay="0.10" arrival="158.00" arrivalLane="4_3way_A06to3way_A05_0" arrivalPos="85.60" arrivalSpeed="15.85" duration="67.00" routeLength="475.13" waitingTime="18.00" waitingCount="1" stopTime="0.00" timeLoss="37.28" rerouteNo="0" devices="tripinfo_202" vType="DEFAULT_VEHTYPE" speedFactor="1.20" vaporized=""/>
    <tripinfo id="329" depart="149.00" departLane="70_4way_B07to4way_B08_0" departPos="5.10" departSpeed="0.00" departDelay="0.95" arrival="159.00" arrivalLane="70_4way_B07to4way_B08_0" arrivalPos="85.60" arrivalSpeed="11.70" duration="10.00" routeLength="80.50" waitingTime="0.00" waitingCount="0" stopTime="0.00" timeLoss="2.65" rerouteNo="0" devices="tripinfo_329" vType="DEFAULT_VEHTYPE" speedFactor="0.87" vaporized=""/>
    <tripinfo id="355" depart="160.00" departLane="21_4way_D03to3way_C03_0" departPos="5.10" departSpeed="0.00" departDelay="0.25" arrival="170.00" arrivalLane="21_4way_D03to3way_C03_0" arrivalPos="85.60" arrivalSpeed="11.08" duration="10.00" routeLength="80.50" waitingTime="0.00" waitingCount="0" stopTime="0.00" timeLoss="3.07" rerouteNo="0" devices="tripinfo_355" vType="DEFAULT_VEHTYPE" speedFactor="0.87" vaporized=""/>
    <tripinfo id="316" depart="143.00" departLane="89_4way_E09to4way_D09_0" departPos="5.10" departSpeed="0.00" departDelay="0.80" arrival="172.00" arrivalLane="85_4way_D08to4way_D07_0" arrivalPos="85.60" arrivalSpeed="11.62" duration="29.00" routeLength="275.13" waitingTime="0.00" waitingCount="0" stopTime="0.00" timeLoss="6.55" rerouteNo="0" devices="tripinfo_316" vType="DEFAULT_VEHTYPE" speedFactor="0.92" vaporized=""/>
    <tripinfo id="322" depart="145.00" departLane="83_4way_D06to4way_D07_0" departPos="5.10" departSpeed="0.00" departDelay="0.10" arrival="172.00" arrivalLane="78_4way_D08to4way_C08_0" arrivalPos="85.60" arrivalSpeed="13.10" duration="27.00" routeLength="275.13" waitingTime="0.00" waitingCount="0" stopTime="0.00" timeLoss="5.30" rerouteNo="0" devices="tripinfo_322" vType="DEFAULT_VEHTYPE" speedFactor="0.97" vaporized=""/>
    <tripinfo id="348" depart="157.00" departLane="12_3way_B10to3way_A09_0" departPos="5.10" departSpeed="0.00" departDelay="0.40" arrival="173.00" arrivalLane="12_3way_B10to3way_A09_0" arrivalPos="182.40" arrivalSpeed="14.09" duration="16.00" routeLength="177.30" waitingTime="0.00" waitingCount="0" stopTime="0.00" timeLoss="3.74" rerouteNo="0" devices="tripinfo_348" vType="DEFAULT_VEHTYPE" speedFactor="1.09" vaporized=""/>
    <tripinfo id="333" depart="150.00" departLane="13_3way_A09to4way_B09_0" departPos="5.10" departSpeed="0.00" departDelay="0.15" arrival="175.00" arrivalLane="79_4way_C09to4way_D09_0" arrivalPos="85.60" arrivalSpeed="13.78" duration="25.00" routeLength="280.50" waitingTime="0.00" waitingCount="0" stopTime="0.00" timeLoss="3.89" rerouteNo="0" devices="tripinfo_333" vType="DEFAULT_VEHTYPE" speedFactor="1.00" vaporized=""/>
    <tripinfo id="17" depart="8.00" departLane="79_4way_D09to4way_C09_0" departPos="5.10" departSpeed="0.00" departDelay="0.35" arrival="178.00" arrivalLane="4_3way_A06to3way_A05_0" arrivalPos="85.60" arrivalSpeed="12.33" duration="170.00" routeLength="675.13" waitingTime="108.00" waitingCount="1" stopTime="0.00" timeLoss="118.39" rerouteNo="0" devices="tripinfo_17" vType="DEFAULT_VEHTYPE" speedFactor="0.97" vaporized=""/>
    <tripinfo id="303" depart="137.00" departLane="43_3way_E10to4way_E09_0" departPos="5.10" departSpeed="0.00" departDelay="0.65" arrival="188.00" arrivalLane="117_4way_F07to4way_G07_0" arrivalPos="85.60" arrivalSpeed="10.04" duration="51.00" routeLength="475.13" waitingTime="0.00" waitingCount="0" stopTime="0.00" timeLoss="6.99" rerouteNo="0" devices="tripinfo_303" vType="DEFAULT_VEHTYPE" speedFactor="0.81" vaporized=""/>
    <tripinfo id="378" depart="171.00" departLane="14_3way_B03to3way_C03_0" departPos="5.10" departSpeed="0.00" departDelay="0.90" arrival="190.00" arrivalLane="20_3way_C03to3way_C04_0" arrivalPos="85.60" arrivalSpeed="13.32" duration="19.00" routeLength="175.13" waitingTime="0.00" waitingCount="0" stopTime="0.00" timeLoss="5.22" rerouteNo="0" devices="tripinfo_378" vType="DEFAULT_VEHTYPE" speedFactor="0.98" vaporized=""/>
    <tripinfo id="369" depart="167.00" departLane="13_3way_A09to4way_B09_0" departPos="5.10" departSpeed="0.00" departDelay="0.95" arrival="191.00" arrivalLane="79_4way_C09to4way_D09_0" arrivalPos="85.60" arrivalSpeed="13.91" duration="24.00" routeLength="280.50" waitingTime="0.00" waitingCount="0" stopTime="0.00" timeLoss="4.66" rerouteNo="0" devices="tripinfo_369" vType="DEFAULT_VEHTYPE" speedFactor="1.09" vaporized=""/>
    <tripinfo id="354" depart="160.00" departLane="64_3way_H07to3way_H08_0" departPos="5.10" departSpeed="0.00" departDelay="0.70" arrival="192.00" arrivalLane="50_3way_H09to3way_G10_0" arrivalPos="182.40" arrivalSpeed="13.61" duration="32.00" routeLength="377.30" waitingTime="0.00" waitingCount="0" stopTime="0.00" timeLoss="3.95" rerouteNo="0" devices="tripinfo_354" vType="DEFAULT_VEHTYPE" speedFactor="0.99" vaporized=""/>
    <tripinfo id="388" depart="175.00" departLane="112_4way_F05to4way_F06_0" departPos="5.10" departSpeed="0.00" departDelay="0.40" arrival="192.00" arrivalLane="114_4way_F06to4way_F07_0" arrivalPos="85.60" arrivalSpeed="13.28" duration="17.00" routeLength="180.50" waitingTime="0.00" waitingCount="0" stopTime="0.00" timeLoss="3.43" rerouteNo="0" devices="tripinfo_388" vType="DEFAULT_VEHTYPE" speedFactor="0.99" vaporized=""/>
    <tripinfo id="24" depart="11.00" departLane="28_3way_C10to4way_C09_0" departPos="5.10" departSpeed="0.00" departDelay="0.20" arrival="193.00" arrivalLane="120_4way_F09to4way_G09_0" arrivalPos="85.60" arrivalSpeed="8.08" duration="182.00" routeLength="475.13" waitingTime="131.00" waitingCount="2" stopTime="0.00" timeLoss="149.62" rerouteNo="0" devices="tripinfo_24" vType="DEFAULT_VEHTYPE" speedFactor="1.10" vaporized=""/>
    <tripinfo id="103" depart="47.00" departLane="62_3way_H06to3way_H07_0" departPos="5.10" departSpeed="0.00" departDelay="0.65" arrival="193.00" arrivalLane="68_3way_H09to4way_G09_0" arrivalPos="85.60" arrivalSpeed="9.21" duration="146.00" routeLength="375.13" waitingTime="108.00" waitingCount="1" stopTime="0.00" timeLoss="120.21" rerouteNo="0" devices="tripinfo_103" vType="DEFAULT_VEHTYPE" speedFactor="1.09" vaporized=""/>
    <tripinfo id="157" depart="71.00" departLane="102_4way_E08to4way_F08_0" departPos="5.10" departSpeed="0.00" departDelay="0.35" arrival="193.00" arrivalLane="102_4way_E08to4way_F08_0" arrivalPos="85.60" arrivalSpeed="8.35" duration="122.00" routeLength="80.50" waitingTime="107.00" waitingCount="1" stopTime="0.00" timeLoss="115.65" rerouteNo="0" devices="tripinfo_157" vType="DEFAULT_VEHTYPE" speedFactor="0.99" vaporized=""/>