<?xml version="1.0" encoding="UTF-8"?>

<!-- generated on 2023-07-27 03:02:18 by Eclipse SUMO sumo Version 1.12.0
<configuration xmlns:xsi="http://www.w3.org/2001/XMLSchema-instance" xsi:noNamespaceSchemaLocation="http://sumo.dlr.de/xsd/sumoConfiguration.xsd">

    <input>
        <net-file value="../../data_generation/sq.net.xml"/>
        <route-files value="../../data_generation/sq.rou.xml"/>
    </input>

    <output>
        <tripinfo-output value="tripinfo.xml"/>
        <statistic-output value="statistic.xml"/>
    </output>

    <time>
        <begin value="0"/>
        <end value="3600"/>
    </time>

    <processing>
        <time-to-teleport value="-1"/>
    </processing>

    <traci_server>
        <remote-port value="32999"/>
    </traci_server>

    <random_number>
        <seed value="1395"/>
    </random_number>

    <gui_only>
        <gui-settings-file value="../../data_generation/view_HY_0402.xml"/>
    </gui_only>

</configuration>
-->

<tripinfos xmlns:xsi="http://www.w3.org/2001/XMLSchema-instance" xsi:noNamespaceSchemaLocation="http://sumo.dlr.de/xsd/tripinfo_file.xsd">
    <tripinfo id="7" depart="8.00" departLane="34_3way_7to3way_6_0" departPos="5.10" departSpeed="0.00" departDelay="0.22" arrival="18.00" arrivalLane="34_3way_7to3way_6_0" arrivalPos="85.60" arrivalSpeed="13.16" duration="10.00" routeLength="80.50" waitingTime="0.00" waitingCount="0" stopTime="0.00" timeLoss="3.25" rerouteNo="0" devices="tripinfo_7" vType="DEFAULT_VEHTYPE" speedFactor="0.95" vaporized=""/>
    <tripinfo id="9" depart="10.00" departLane="104_4way_42to4way_41_0" departPos="5.10" departSpeed="0.00" departDelay="0.00" arrival="20.00" arrivalLane="104_4way_42to4way_41_0" arrivalPos="85.60" arrivalSpeed="12.23" duration="10.00" routeLength="80.50" waitingTime="0.00" waitingCount="0" stopTime="0.00" timeLoss="2.68" rerouteNo="0" devices="tripinfo_9" vType="DEFAULT_VEHTYPE" speedFactor="0.91" vaporized=""/>
    <tripinfo id="16" depart="18.00" departLane="62_4way_21to4way_12_0" departPos="5.10" departSpeed="0.00" departDelay="0.22" arrival="38.00" arrivalLane="59_4way_12to4way_11_0" arrivalPos="85.60" arrivalSpeed="11.82" duration="20.00" routeLength="175.13" waitingTime="0.00" waitingCount="0" stopTime="0.00" timeLoss="5.26" rerouteNo="0" devices="tripinfo_16" vType="DEFAULT_VEHTYPE" speedFactor="0.90" vaporized=""/>
    <tripinfo id="38" depart="43.00" departLane="21_4way_37to3way_36_0" departPos="5.10" departSpeed="0.00" departDelay="0.78" arrival="53.00" arrivalLane="21_4way_37to3way_36_0" arrivalPos="85.60" arrivalSpeed="13.47" duration="10.00" routeLength="80.50" waitingTime="0.00" waitingCount="0" stopTime="0.00" timeLoss="3.31" rerouteNo="0" devices="tripinfo_38" vType="DEFAULT_VEHTYPE" speedFactor="1.00" vaporized=""/>
    <tripinfo id="35" depart="39.00" departLane="23_3way_4to4way_13_0" departPos="5.10" departSpeed="0.00" departDelay="0.11" arrival="58.00" arrivalLane="63_4way_13to4way_14_0" arrivalPos="85.60" arrivalSpeed="12.75" duration="19.00" routeLength="175.13" waitingTime="0.00" waitingCount="0" stopTime="0.00" timeLoss="4.74" rerouteNo="0" devices="tripinfo_35" vType="DEFAULT_VEHTYPE" speedFactor="0.94" vaporized=""/>
    <tripinfo id="28" depart="32.00" departLane="12_3way_26to3way_35_0" departPos="5.10" departSpeed="0.00" departDelay="0.89" arrival="63.00" arrivalLane="30_3way_53to3way_62_0" arrivalPos="85.60" arrivalSpeed="13.61" duration="31.00" routeLength="380.50" waitingTime="0.00" waitingCount="0" stopTime="0.00" timeLoss="4.21" rerouteNo="0" devices="tripinfo_28" vType="DEFAULT_VEHTYPE" speedFactor="1.03" vaporized=""/>
    <tripinfo id="51" depart="58.00" departLane="88_4way_30to4way_39_0" departPos="5.10" departSpeed="0.00" departDelay="1.33" arrival="69.00" arrivalLane="88_4way_30to4way_39_0" arrivalPos="85.60" arrivalSpeed="9.57" duration="11.00" routeLength="80.50" waitingTime="0.00" waitingCount="0" stopTime="0.00" timeLoss="2.32" rerouteNo="0" devices="tripinfo_51" vType="DEFAULT_VEHTYPE" speedFactor="0.74" vaporized=""/>
    <tripinfo id="0" depart="0.00" departLane="129_4way_67to4way_58_0" departPos="5.10" departSpeed="0.00" departDelay="0.00" arrival="70.00" arrivalLane="61_4way_13to4way_12_0" arrivalPos="85.60" arrivalSpeed="4.96" duration="70.00" routeLength="675.13" waitingTime="9.00" waitingCount="1" stopTime="0.00" timeLoss="21.11" rerouteNo="0" devices="tripinfo_0" vType="DEFAULT_VEHTYPE" speedFactor="1.00" vaporized=""/>
    <tripinfo id="14" depart="16.00" departLane="97_4way_37to4way_46_0" departPos="5.10" departSpeed="0.00" departDelay="0.44" arrival="70.00" arrivalLane="122_4way_55to4way_56_0" arrivalPos="85.60" arrivalSpeed="5.38" duration="54.00" routeLength="275.13" waitingTime="22.00" waitingCount="1" stopTime="0.00" timeLoss="32.56" rerouteNo="0" devices="tripinfo_14" vType="DEFAULT_VEHTYPE" speedFactor="0.95" vaporized=""/>
    <tripinfo id="17" depart="19.00" departLane="114_4way_57to4way_48_0" departPos="5.10" departSpeed="0.00" departDelay="0.11" arrival="76.00" arrivalLane="10_3way_3to3way_2_0" arrivalPos="85.60" arrivalSpeed="13.93" duration="57.00" routeLength="675.13" waitingTime="0.00" waitingCount="0" stopTime="0.00" timeLoss="8.93" rerouteNo="0" devices="tripinfo_17" vType="DEFAULT_VEHTYPE" speedFactor="1.04" vaporized=""/>
    <tripinfo id="10" depart="12.00" departLane="130_4way_59to4way_60_0" departPos="5.10" departSpeed="0.00" departDelay="0.89" arrival="77.00" arrivalLane="132_4way_60to4way_61_0" arrivalPos="85.60" arrivalSpeed="13.32" duration="65.00" routeLength="180.50" waitingTime="42.00" waitingCount="1" stopTime="0.00" timeLoss="51.98" rerouteNo="0" devices="tripinfo_10" vType="DEFAULT_VEHTYPE" speedFactor="1.04" vaporized=""/>
    <tripinfo id="20" depart="23.00" departLane="22_3way_5to3way_4_0" departPos="5.10" departSpeed="0.00" departDelay="0.78" arrival="77.00" arrivalLane="103_4way_40to4way_49_0" arrivalPos="85.60" arrivalSpeed="12.02" duration="54.00" routeLength="575.13" waitingTime="0.00" waitingCount="0" stopTime="0.00" timeLoss="6.97" rerouteNo="0" devices="tripinfo_20" vType="DEFAULT_VEHTYPE" speedFactor="0.89" vaporized=""/>
    <tripinfo id="31" depart="35.00" departLane="6_3way_17to4way_16_0" departPos="5.10" departSpeed="0.00" departDelay="0.56" arrival="78.00" arrivalLane="67_4way_16to4way_15_0" arrivalPos="85.60" arrivalSpeed="15.06" duration="43.00" routeLength="180.50" waitingTime="22.00" waitingCount="1" stopTime="0.00" timeLoss="31.25" rerouteNo="0" devices="tripinfo_31" vType="DEFAULT_VEHTYPE" speedFactor="1.11" vaporized=""/>
    <tripinfo id="57" depart="64.00" departLane="115_4way_49to4way_50_0" departPos="5.10" departSpeed="0.00" departDelay="0.67" arrival="81.00" arrivalLane="117_4way_50to4way_51_0" arrivalPos="85.60" arrivalSpeed="13.13" duration="17.00" routeLength="180.50" waitingTime="0.00" waitingCount="0" stopTime="0.00" timeLoss="3.52" rerouteNo="0" devices="tripinfo_57" vType="DEFAULT_VEHTYPE" speedFactor="0.97" vaporized=""/>
    <tripinfo id="60" depart="67.00" departLane="111_4way_48to4way_47_0" departPos="5.10" departSpeed="0.00" departDelay="0.33" arrival="83.00" arrivalLane="109_4way_47to4way_46_0" arrivalPos="85.60" arrivalSpeed="15.47" duration="16.00" routeLength="180.50" waitingTime="0.00" waitingCount="0" stopTime="0.00" timeLoss="3.81" rerouteNo="0" devices="tripinfo_60" vType="DEFAULT_VEHTYPE" speedFactor="1.12" vaporized=""/>
    <tripinfo id="13" depart="15.00" departLane="19_4way_34to3way_35_0" departPos="5.10" departSpeed="0.00" departDelay="0.56" arrival="85.00" arrivalLane="24_3way_44to3way_53_0" arrivalPos="85.60" arrivalSpeed="12.95" duration="70.00" routeLength="280.29" waitingTime="39.00" waitingCount="1" stopTime="0.00" timeLoss="48.07" rerouteNo="0" devices="tripinfo_13" vType="DEFAULT_VEHTYPE" speedFactor="0.98" vaporized=""/>
    <tripinfo id="71" depart="79.00" departLane="6_4way_16to3way_17_0" departPos="5.10" departSpeed="0.00" departDelay="0.11" arrival="88.00" arrivalLane="6_4way_16to3way_17_0" arrivalPos="85.60" arrivalSpeed="15.27" duration="9.00" routeLength="80.50" waitingTime="0.00" waitingCount="0" stopTime="0.00" timeLoss="3.71" rerouteNo="0" devices="tripinfo_71" vType="DEFAULT_VEHTYPE" speedFactor="1.13" vaporized=""/>
    <tripinfo id="63" depart="72.00" departLane="122_4way_55to4way_56_0" departPos="5.10" departSpeed="0.00" departDelay="2.00" arrival="89.00" arrivalLane="124_4way_56to4way_57_0" arrivalPos="85.60" arrivalSpeed="13.09" duration="17.00" routeLength="180.50" waitingTime="0.00" waitingCount="0" stopTime="0.00" timeLoss="3.36" rerouteNo="0" devices="tripinfo_63" vType="DEFAULT_VEHTYPE" speedFactor="0.95" vaporized=""/>
    <tripinfo id="22" depart="25.00" departLane="56_4way_10to3way_9_0" departPos="5.10" departSpeed="0.00" departDelay="0.56" arrival="91.00" arrivalLane="14_3way_27to3way_36_0" arrivalPos="85.60" arrivalSpeed="13.74" duration="66.00" routeLength="375.13" waitingTime="31.00" waitingCount="1" stopTime="0.00" timeLoss="38.32" rerouteNo="0" devices="tripinfo_22" vType="DEFAULT_VEHTYPE" speedFactor="1.00" vaporized=""/>
    <tripinfo id="26" depart="29.00" departLane="45_3way_74to3way_75_0" departPos="5.10" departSpeed="0.00" departDelay="0.11" arrival="92.00" arrivalLane="77_4way_31to4way_22_0" arrivalPos="85.60" arrivalSpeed="13.09" duration="63.00" routeLength="775.13" waitingTime="0.00" waitingCount="0" stopTime="0.00" timeLoss="7.45" rerouteNo="0" devices="tripinfo_26" vType="DEFAULT_VEHTYPE" speedFactor="1.03" vaporized=""/>
    <tripinfo id="15" depart="17.00" departLane="105_4way_41to4way_50_0" departPos="5.10" departSpeed="0.00" departDelay="0.33" arrival="98.00" arrivalLane="43_3way_74to3way_73_0" arrivalPos="85.60" arrivalSpeed="14.50" duration="81.00" routeLength="780.29" waitingTime="16.00" waitingCount="1" stopTime="0.00" timeLoss="26.58" rerouteNo="0" devices="tripinfo_15" vType="DEFAULT_VEHTYPE" speedFactor="1.05" vaporized=""/>
    <tripinfo id="75" depart="84.00" departLane="93_4way_33to4way_34_0" departPos="5.10" departSpeed="0.00" departDelay="0.67" arrival="100.00" arrivalLane="19_4way_34to3way_35_0" arrivalPos="85.60" arrivalSpeed="14.36" duration="16.00" routeLength="180.50" waitingTime="0.00" waitingCount="0" stopTime="0.00" timeLoss="4.01" rerouteNo="0" devices="tripinfo_75" vType="DEFAULT_VEHTYPE" speedFactor="1.09" vaporized=""/>
    <tripinfo id="70" depart="78.00" departLane="129_4way_58to4way_67_0" departPos="5.10" departSpeed="0.00" departDelay="0.22" arrival="101.00" arrivalLane="138_4way_67to4way_68_0" arrivalPos="85.60" arrivalSpeed="9.40" duration="23.00" routeLength="175.13" waitingTime="0.00" waitingCount="0" stopTime="0.00" timeLoss="5.06" rerouteNo="0" devices="tripinfo_70" vType="DEFAULT_VEHTYPE" speedFactor="0.75" vaporized=""/>
    <tripinfo id="81" depart="90.00" departLane="2_3way_9to3way_1_0" departPos="5.10" departSpeed="0.00" departDelay="0.00" arrival="106.00" arrivalLane="2_3way_9to3way_1_0" arrivalPos="188.80" arrivalSpeed="14.17" duration="16.00" routeLength="183.70" waitingTime="0.00" waitingCount="0" stopTime="0.00" timeLoss="3.30" rerouteNo="0" devices="tripinfo_81" vType="DEFAULT_VEHTYPE" speedFactor="1.05" vaporized=""/>
    <tripinfo id="40" depart="45.00" departLane="44_3way_73to4way_64_0" departPos="5.10" departSpeed="0.00" departDelay="0.56" arrival="108.00" arrivalLane="75_4way_30to4way_21_0" arrivalPos="85.60" arrivalSpeed="14.14" duration="63.00" routeLength="774.93" waitingTime="0.00" waitingCount="0" stopTime="0.00" timeLoss="9.32" rerouteNo="0" devices="tripinfo_40" vType="DEFAULT_VEHTYPE" speedFactor="1.08" vaporized=""/>
    <tripinfo id="48" depart="54.00" departLane="43_3way_73to3way_74_0" departPos="5.10" departSpeed="0.00" departDelay="0.67" arrival="120.00" arrivalLane="103_4way_49to4way_40_0" arrivalPos="85.60" arrivalSpeed="11.45" duration="66.00" routeLength="675.13" waitingTime="0.00" waitingCount="0" stopTime="0.00" timeLoss="6.90" rerouteNo="0" devices="tripinfo_48" vType="DEFAULT_VEHTYPE" speedFactor="0.83" vaporized=""/>
    <tripinfo id="96" depart="107.00" departLane="45_3way_74to3way_75_0" departPos="5.10" departSpeed="0.00" departDelay="0.33" arrival="125.00" arrivalLane="47_3way_75to3way_76_0" arrivalPos="85.60" arrivalSpeed="12.67" duration="18.00" routeLength="180.50" waitingTime="0.00" waitingCount="0" stopTime="0.00" timeLoss="3.76" rerouteNo="0" devices="tripinfo_96" vType="DEFAULT_VEHTYPE" speedFactor="0.95" vaporized=""/>
    <tripinfo id="11" depart="13.00" departLane="105_4way_50to4way_41_0" departPos="5.10" departSpeed="0.00" departDelay="0.78" arrival="130.00" arrivalLane="59_4way_12to4way_11_0" arrivalPos="85.60" arrivalSpeed="5.27" duration="117.00" routeLength="675.13" waitingTime="51.00" waitingCount="2" stopTime="0.00" timeLoss="67.66" rerouteNo="0" devices="tripinfo_11" vType="DEFAULT_VEHTYPE" speedFactor="1.01" vaporized=""/>
    <tripinfo id="19" depart="22.00" departLane="110_4way_55to4way_46_0" departPos="5.10" departSpeed="0.00" departDelay="0.89" arrival="130.00" arrivalLane="8_3way_18to3way_9_0" arrivalPos="85.60" arrivalSpeed="5.95" duration="108.00" routeLength="574.92" waitingTime="41.00" waitingCount="2" stopTime="0.00" timeLoss="59.41" rerouteNo="0" devices="tripinfo_19" vType="DEFAULT_VEHTYPE" speedFactor="0.89" vaporized=""/>
    <tripinfo id="59" depart="66.00" departLane="64_4way_13to4way_22_0" departPos="5.10" departSpeed="0.00" departDelay="0.44" arrival="132.00" arrivalLane="106_4way_42to4way_43_0" arrivalPos="85.60" arrivalSpeed="6.91" duration="66.00" routeLength="575.13" waitingTime="13.00" waitingCount="1" stopTime="0.00" timeLoss="25.39" rerouteNo="0" devices="tripinfo_59" vType="DEFAULT_VEHTYPE" speedFactor="1.03" vaporized=""/>
    <tripinfo id="29" depart="33.00" departLane="18_3way_44to3way_35_0" departPos="5.10" departSpeed="0.00" departDelay="0.78" arrival="133.00" arrivalLane="76_4way_23to4way_22_0" arrivalPos="85.60" arrivalSpeed="7.33" duration="100.00" routeLength="575.13" waitingTime="36.00" waitingCount="2" stopTime="0.00" timeLoss="55.02" rerouteNo="0" devices="tripinfo_29" vType="DEFAULT_VEHTYPE" speedFactor="0.95" vaporized=""/>
    <tripinfo id="12" depart="14.00" departLane="64_4way_13to4way_22_0" departPos="5.10" departSpeed="0.00" departDelay="0.67" arrival="136.00" arrivalLane="12_3way_26to3way_35_0" arrivalPos="85.60" arrivalSpeed="15.82" duration="122.00" routeLength="574.92" waitingTime="66.00" waitingCount="2" stopTime="0.00" timeLoss="85.18" rerouteNo="0" devices="tripinfo_12" vType="DEFAULT_VEHTYPE" speedFactor="1.16" vaporized=""/>
    <tripinfo id="1" depart="2.00" departLane="136_4way_65to4way_66_0" departPos="5.10" departSpeed="0.00" departDelay="0.89" arrival="137.00" arrivalLane="114_4way_57to4way_48_0" arrivalPos="85.60" arrivalSpeed="14.09" duration="135.00" routeLength="275.13" waitingTime="102.00" waitingCount="2" stopTime="0.00" timeLoss="114.77" rerouteNo="0" devices="tripinfo_1" vType="DEFAULT_VEHTYPE" speedFactor="1.04" vaporized=""/>
    <tripinfo id="6" depart="7.00" departLane="80_4way_25to4way_24_0" departPos="5.10" departSpeed="0.00" departDelay="0.33" arrival="137.00" arrivalLane="74_4way_22to4way_21_0" arrivalPos="85.60" arrivalSpeed="13.38" duration="130.00" routeLength="380.50" waitingTime="88.00" waitingCount="2" stopTime="0.00" timeLoss="103.50" rerouteNo="0" devices="tripinfo_6" vType="DEFAULT_VEHTYPE" speedFactor="1.04" vaporized=""/>
    <tripinfo id="8" depart="9.00" departLane="68_4way_24to4way_15_0" departPos="5.10" departSpeed="0.00" departDelay="0.11" arrival="137.00" arrivalLane="10_3way_3to3way_2_0" arrivalPos="85.60" arrivalSpeed="13.13" duration="128.00" routeLength="575.13" waitingTime="71.00" waitingCount="2" stopTime="0.00" timeLoss="84.91" rerouteNo="0" devices="tripinfo_8" vType="DEFAULT_VEHTYPE" speedFactor="0.98" vaporized=""/>
    <tripinfo id="18" depart="20.00" departLane="102_4way_40to4way_41_0" departPos="5.10" departSpeed="0.00" departDelay="0.00" arrival="137.00" arrivalLane="95_4way_43to4way_34_0" arrivalPos="85.60" arrivalSpeed="12.45" duration="117.00" routeLength="375.13" waitingTime="72.00" waitingCount="2" stopTime="0.00" timeLoss="87.62" rerouteNo="0" devices="tripinfo_18" vType="DEFAULT_VEHTYPE" speedFactor="0.96" vaporized=""/>
    <tripinfo id="32" depart="38.00" departLane="6_3way_17to4way_16_0" departPos="5.10" departSpeed="0.00" departDelay="2.44" arrival="138.00" arrivalLane="68_4way_15to4way_24_0" arrivalPos="85.60" arrivalSpeed="13.52" duration="100.00" routeLength="275.13" waitingTime="63.00" waitingCount="2" stopTime="0.00" timeLoss="78.43" rerouteNo="0" devices="tripinfo_32" vType="DEFAULT_VEHTYPE" speedFactor="1.00" vaporized=""/>
    <tripinfo id="66" depart="74.00" departLane="74_4way_22to4way_21_0" departPos="5.10" departSpeed="0.00" departDelay="0.67" arrival="138.00" arrivalLane="75_4way_21to4way_30_0" arrivalPos="85.60" arrivalSpeed="11.91" duration="64.00" routeLength="175.13" waitingTime="39.00" waitingCount="1" stopTime="0.00" timeLoss="47.81" rerouteNo="0" devices="tripinfo_66" vType="DEFAULT_VEHTYPE" speedFactor="0.86" vaporized=""/>
    <tripinfo id="100" depart="112.00" departLane="28_3way_6to3way_5_0" departPos="5.10" departSpeed="0.00" departDelay="0.89" arrival="142.00" arrivalLane="10_3way_3to3way_2_0" arrivalPos="85.60" arrivalSpeed="9.14" duration="30.00" routeLength="380.50" waitingTime="0.00" waitingCount="0" stopTime="0.00" timeLoss="6.92" rerouteNo="0" devices="tripinfo_100" vType="DEFAULT_VEHTYPE" speedFactor="1.20" vaporized=""/>
    <tripinfo id="106" depart="118.00" departLane="9_4way_19to3way_18_0" departPos="5.10" departSpeed="0.00" departDelay="0.22" arrival="142.00" arrivalLane="14_3way_27to3way_36_0" arrivalPos="85.60" arrivalSpeed="15.75" duration="24.00" routeLength="275.13" waitingTime="0.00" waitingCount="0" stopTime="0.00" timeLoss="6.22" rerouteNo="0" devices="tripinfo_106" vType="DEFAULT_VEHTYPE" speedFactor="1.16" vaporized=""/>
    <tripinfo id="94" depart="105.00" departLane="95_4way_34to4way_43_0" departPos="5.10" departSpeed="0.00" departDelay="0.56" arrival="143.00" arrivalLane="55_4way_70to3way_79_0" arrivalPos="85.60" arrivalSpeed="14.69" duration="38.00" routeLength="480.50" waitingTime="0.00" waitingCount="0" stopTime="0.00" timeLoss="5.22" rerouteNo="0" devices="tripinfo_94" vType="DEFAULT_VEHTYPE" speedFactor="1.08" vaporized=""/>
    <tripinfo id="56" depart="63.00" departLane="88_4way_30to4way_39_0" departPos="5.10" departSpeed="0.00" departDelay="0.78" arrival="145.00" arrivalLane="117_4way_50to4way_51_0" arrivalPos="85.60" arrivalSpeed="13.13" duration="82.00" routeLength="475.13" waitingTime="35.00" waitingCount="1" stopTime="0.00" timeLoss="47.05" rerouteNo="0" devices="tripinfo_56" vType="DEFAULT_VEHTYPE" speedFactor="1.02" vaporized=""/>
    <tripinfo id="25" depart="28.00" departLane="37_3way_62to4way_61_0" departPos="5.10" departSpeed="0.00" departDelay="0.22" arrival="146.00" arrivalLane="51_3way_78to3way_77_0" arrivalPos="85.60" arrivalSpeed="11.89" duration="118.00" routeLength="474.92" waitingTime="63.00" waitingCount="2" stopTime="0.00" timeLoss="79.85" rerouteNo="0" devices="tripinfo_25" vType="DEFAULT_VEHTYPE" speedFactor="0.95" vaporized=""/>
    <tripinfo id="5" depart="6.00" departLane="124_4way_56to4way_57_0" departPos="5.10" departSpeed="0.00" departDelay="0.44" arrival="149.00" arrivalLane="118_4way_59to4way_50_0" arrivalPos="85.60" arrivalSpeed="11.98" duration="143.00" routeLength="375.13" waitingTime="95.00" waitingCount="2" stopTime="0.00" timeLoss="113.33" rerouteNo="0" devices="tripinfo_5" vType="DEFAULT_VEHTYPE" speedFactor="0.94" vaporized=""/>
    <tripinfo id="42" depart="47.00" departLane="80_4way_25to4way_24_0" departPos="5.10" departSpeed="0.00" departDelay="0.33" arrival="149.00" arrivalLane="75_4way_21to4way_30_0" arrivalPos="85.60" arrivalSpeed="13.22" duration="102.00" routeLength="475.13" waitingTime="48.00" waitingCount="2" stopTime="0.00" timeLoss="66.21" rerouteNo="0" devices="tripinfo_42" vType="DEFAULT_VEHTYPE" speedFactor="0.99" vaporized=""/>
    <tripinfo id="113" depart="126.00" departLane="49_3way_77to3way_76_0" departPos="5.10" departSpeed="0.00" departDelay="0.45" arrival="149.00" arrivalLane="45_3way_75to3way_74_0" arrivalPos="85.60" arrivalSpeed="14.35" duration="23.00" routeLength="280.50" waitingTime="0.00" waitingCount="0" stopTime="0.00" timeLoss="4.12" rerouteNo="0" devices="tripinfo_113" vType="DEFAULT_VEHTYPE" speedFactor="1.10" vaporized=""/>
    <tripinfo id="61" depart="68.00" departLane="20_3way_45to3way_36_0" departPos="5.10" departSpeed="0.00" departDelay="0.22" arrival="152.00" arrivalLane="1_3way_1to3way_2_0" arrivalPos="85.60" arrivalSpeed="13.08" duration="84.00" routeLength="683.70" waitingTime="25.00" waitingCount="1" stopTime="0.00" timeLoss="34.64" rerouteNo="0" devices="tripinfo_61" vType="DEFAULT_VEHTYPE" speedFactor="1.01" vaporized=""/>
    <tripinfo id="34" depart="38.00" departLane="114_4way_48to4way_57_0" departPos="5.10" departSpeed="0.00" departDelay="0.22" arrival="153.00" arrivalLane="132_4way_60to4way_61_0" arrivalPos="85.60" arrivalSpeed="13.15" duration="115.00" routeLength="475.13" waitingTime="67.00" waitingCount="1" stopTime="0.00" timeLoss="77.50" rerouteNo="0" devices="tripinfo_34" vType="DEFAULT_VEHTYPE" speedFactor="0.96" vaporized=""/>
    <tripinfo id="72" depart="80.00" departLane="134_4way_70to4way_61_0" departPos="5.10" departSpeed="0.00" departDelay="0.00" arrival="153.00" arrivalLane="128_4way_59to4way_58_0" arrivalPos="85.60" arrivalSpeed="14.81" duration="73.00" routeLength="375.13" waitingTime="34.00" waitingCount="1" stopTime="0.00" timeLoss="49.01" rerouteNo="0" devices="tripinfo_72" vType="DEFAULT_VEHTYPE" speedFactor="1.15" vaporized=""/>
    <tripinfo id="110" depart="123.00" departLane="108_4way_43to4way_52_0" departPos="5.10" departSpeed="0.00" departDelay="0.78" arrival="153.00" arrivalLane="55_4way_70to3way_79_0" arrivalPos="85.60" arrivalSpeed="14.04" duration="30.00" routeLength="380.50" waitingTime="0.00" waitingCount="0" stopTime="0.00" timeLoss="3.93" rerouteNo="0" devices="tripinfo_110" vType="DEFAULT_VEHTYPE" speedFactor="1.05" vaporized=""/>
    <tripinfo id="30" depart="34.00" departLane="58_4way_10to4way_19_0" departPos="5.10" departSpeed="0.00" departDelay="0.67" arrival="165.00" arrivalLane="51_3way_77to3way_78_0" arrivalPos="85.60" arrivalSpeed="14.15" duration="131.00" routeLength="1175.13" waitingTime="39.00" waitingCount="1" stopTime="0.00" timeLoss="49.73" rerouteNo="0" devices="tripinfo_30" vType="DEFAULT_VEHTYPE" speedFactor="1.05" vaporized=""/>
    <tripinfo id="108" depart="120.00" departLane="117_4way_51to4way_50_0" departPos="5.10" departSpeed="0.00" departDelay="0.00" arrival="167.00" arrivalLane="127_4way_57to4way_66_0" arrivalPos="85.60" arrivalSpeed="10.90" duration="47.00" routeLength="475.13" waitingTime="0.00" waitingCount="0" stopTime="0.00" timeLoss="6.78" rerouteNo="0" devices="tripinfo_108" vType="DEFAULT_VEHTYPE" speedFactor="0.88" vaporized=""/>
    <tripinfo id="147" depart="164.00" departLane="108_4way_43to4way_52_0" departPos="5.10" departSpeed="0.00" departDelay="0.67" arrival="173.00" arrivalLane="108_4way_43to4way_52_0" arrivalPos="85.60" arrivalSpeed="12.41" duration="9.00" routeLength="80.50" waitingTime="0.00" waitingCount="0" stopTime="0.00" timeLoss="2.98" rerouteNo="0" devices="tripinfo_147" vType="DEFAULT_VEHTYPE" speedFactor="0.97" vaporized=""/>
    <tripinfo id="65" depart="73.00" departLane="88_4way_39to4way_30_0" departPos="5.10" departSpeed="0.00" departDelay="0.78" arrival="190.00" arrivalLane="75_4way_30to4way_21_0" arrivalPos="85.60" arrivalSpeed="5.37" duration="117.00" routeLength="180.50" waitingTime="90.00" waitingCount="2" stopTime="0.00" timeLoss="106.03" rerouteNo="0" devices="tripinfo_65" vType="DEFAULT_VEHTYPE" speedFactor="1.20" vaporized=""/>
    <tripinfo id="116" depart="131.00" departLane="57_4way_11to4way_10_0" departPos="5.10" departSpeed="0.00" departDelay="2.11" arrival="190.00" arrivalLane="57_4way_11to4way_10_0" arrivalPos="85.60" arrivalSpeed="6.71" duration="59.00" routeLength="80.50" waitingTime="44.00" waitingCount="1" stopTime="0.00" timeLoss="52.80" rerouteNo="0" devices="tripinfo_116" vType="DEFAULT_VEHTYPE" speedFactor="0.99" vaporized=""/>
    <tripinfo id="124" depart="138.00" departLane="79_4way_23to4way_32_0" departPos="5.10" departSpeed="0.00" departDelay="0.22" arrival="190.00" arrivalLane="79_4way_23to4way_32_0" arrivalPos="85.60" arrivalSpeed="5.87" duration="52.00" routeLength="80.50" waitingTime="37.00" waitingCount="1" stopTime="0.00" timeLoss="46.65" rerouteNo="0" devices="tripinfo_124" vType="DEFAULT_VEHTYPE" speedFactor="1.11" vaporized=""/>
    <tripinfo id="160" depart="178.00" departLane="103_4way_49to4way_40_0" departPos="5.10" departSpeed="0.00" departDelay="0.22" arrival="190.00" arrivalLane="103_4way_49to4way_40_0" arrivalPos="85.60" arrivalSpeed="7.79" duration="12.00" routeLength="80.50" waitingTime="0.00" waitingCount="0" stopTime="0.00" timeLoss="4.91" rerouteNo="0" devices="tripinfo_160" vType="DEFAULT_VEHTYPE" speedFactor="0.88" vaporized=""/>
    <tripinfo id="95" depart="106.00" departLane="85_4way_29to4way_30_0" departPos="5.10" departSpeed="0.00" departDelay="0.44" arrival="191.00" arrivalLane="66_4way_23to4way_14_0" arrivalPos="85.60" arrivalSpeed="6.17" duration="85.00" routeLength="475.13" waitingTime="30.00" waitingCount="2" stopTime="0.00" timeLoss="44.88" rerouteNo="0" devices="tripinfo_95" vType="DEFAULT_VEHTYPE" speedFactor="0.88" vaporized=""/>
    <tripinfo id="23" depart="26.00" departLane="122_4way_55to4way_56_0" departPos="5.10" departSpeed="0.00" departDelay="0.44" arrival="192.00" arrivalLane="75_4way_30to4way_21_0" arrivalPos="85.60" arrivalSpeed="6.92" duration="166.00" routeLength="575.13" waitingTime="94.00" waitingCount="3" stopTime="0.00" timeLoss="118.14" rerouteNo="0" devices="tripinfo_23" vType="DEFAULT_VEHTYPE" speedFactor="0.87" vaporized=""/>
    <tripinfo id="91" depart="102.00" departLane="98_4way_39to4way_38_0" departPos="5.10" departSpeed="0.00" departDelay="0.89" arrival="193.00" arrivalLane="125_4way_56to4way_65_0" arrivalPos="85.60" arrivalSpeed="9.34" duration="91.00" routeLength="375.13" waitingTime="49.00" waitingCount="2" stopTime="0.00" timeLoss="64.01" rerouteNo="0" devices="tripinfo_91" vType="DEFAULT_VEHTYPE" speedFactor="1.04" vaporized=""/>
    <tripinfo id="103" depart="115.00" departLane="51_3way_77to3way_78_0" departPos="5.10" departSpeed="0.00" departDelay="0.56" arrival="196.00" arrivalLane="55_3way_79to4way_70_0" arrivalPos="85.60" arrivalSpeed="15.58" duration="81.00" routeLength="275.13" waitingTime="52.00" waitingCount="1" stopTime="0.00" timeLoss="62.51" rerouteNo="0" devices="tripinfo_103" vType="DEFAULT_VEHTYPE" speedFactor="1.15" vaporized=""/>
    <tripinfo id="4" depart="5.00" departLane="71_4way_19to4way_28_0" departPos="5.10" departSpeed="0.00" departDelay="0.56" arrival="197.00" arrivalLane="119_4way_51to4way_52_0" arrivalPos="85.60" arrivalSpeed="14.23" duration="192.00" routeLength="875.13" waitingTime="104.00" waitingCount="3" stopTime="0.00" timeLoss="129.34" rerouteNo="0" devices="tripinfo_4" vType="DEFAULT_VEHTYPE" speedFactor="1.02" vaporized=""/>
    <tripinfo id="43" depart="48.00" departLane="87_4way_31to4way_30_0" departPos="5.10" departSpeed="0.00" departDelay="0.22" arrival="197.00" arrivalLane="14_3way_27to3way_36_0" arrivalPos="85.60" arrivalSpeed="12.36" duration="149.00" routeLength="475.13" waitingTime="94.00" waitingCount="3" stopTime="0.00" timeLoss="112.81" rerouteNo="0" devices="tripinfo_43" vType="DEFAULT_VEHTYPE" speedFactor="0.97" vaporized=""/>
    <tripinfo id="46" depart="52.00" departLane="11_3way_2to4way_11_0" departPos="5.10" departSpeed="0.00" departDelay="0.89" arrival="197.00" arrivalLane="98_4way_38to4way_39_0" arrivalPos="85.60" arrivalSpeed="13.29" duration="145.00" routeLength="475.13" waitingTime="94.00" waitingCount="2" stopTime="0.00" timeLoss="110.90" rerouteNo="0" devices="tripinfo_46" vType="DEFAULT_VEHTYPE" speedFactor="1.04" vaporized=""/>
    <tripinfo id="73" depart="82.00" departLane="106_4way_42to4way_43_0" departPos="5.10" departSpeed="0.00" departDelay="0.89" arrival="197.00" arrivalLane="24_3way_44to3way_53_0" arrivalPos="85.60" arrivalSpeed="13.62" duration="115.00" routeLength="280.29" waitingTime="79.00" waitingCount="2" stopTime="0.00" timeLoss="93.48" rerouteNo="0" devices="tripinfo_73" vType="DEFAULT_VEHTYPE" speedFactor="0.98" vaporized=""/>
    <tripinfo id="130" depart="145.00" departLane="115_4way_50to4way_49_0" departPos="5.10" departSpeed="0.00" departDelay="0.56" arrival="197.00" arrivalLane="90_4way_40to4way_31_0" arrivalPos="85.60" arrivalSpeed="13.16" duration="52.00" routeLength="280.30" waitingTime="19.00" waitingCount="1" stopTime="0.00" timeLoss="29.85" rerouteNo="0" devices="tripinfo_130" vType="DEFAULT_VEHTYPE" speedFactor="0.98" vaporized=""/>
    <tripinfo id="74" depart="83.00" departLane="126_4way_57to4way_58_0" departPos="5.10" departSpeed="0.00" departDelay="0.78" arrival="198.00" arrivalLane="37_4way_61to3way_62_0" arrivalPos="85.60" arrivalSpeed="10.38" duration="115.00" routeLength="480.50" waitingTime="56.00" waitingCount="2" stopTime="0.00" timeLoss="72.30" rerouteNo="0" devices="tripinfo_74" vType="DEFAULT_VEHTYPE" speedFactor="0.81" vaporized=""/>
    <tripinfo id="50" depart="56.00" departLane="85_4way_30to4way_29_0" departPos="5.10" departSpeed="0.00" departDelay="0.44" arrival="199.00" arrivalLane="46_4way_65to3way_74_0" arrivalPos="85.60" arrivalSpeed="13.40" duration="143.00" routeLength="575.13" waitingTime="82.00" waitingCount="2" stopTime="0.00" timeLoss="100.74" rerouteNo="0" devices="tripinfo_50" vType="DEFAULT_VEHTYPE" speedFactor="1.01" vaporized=""/>