<?xml version="1.0" encoding="UTF-8"?>

<!-- generated on 2023-02-09 17:00:37 by Eclipse SUMO GUI Version 1.12.0
<configuration xmlns:xsi="http://www.w3.org/2001/XMLSchema-instance" xsi:noNamespaceSchemaLocation="http://sumo.dlr.de/xsd/sumoConfiguration.xsd">

    <input>
        <net-file value="../../data_generation/sq.net.xml"/>
        <route-files value="../../data_generation/sq.rou.xml"/>
    </input>

    <output>
        <tripinfo-output value="tripinfo.xml"/>
        <statistic-output value="statistic.xml"/>
    </output>

    <time>
        <begin value="0"/>
        <end value="3600"/>
    </time>

    <processing>
        <time-to-teleport value="-1"/>
    </processing>

    <traci_server>
        <remote-port value="44341"/>
    </traci_server>

    <random_number>
        <seed value="1395"/>
    </random_number>

    <gui_only>
        <gui-settings-file value="../../data_generation/view_HY_0402.xml"/>
    </gui_only>

</configuration>
-->

<tripinfos xmlns:xsi="http://www.w3.org/2001/XMLSchema-instance" xsi:noNamespaceSchemaLocation="http://sumo.dlr.de/xsd/tripinfo_file.xsd">
    <tripinfo id="148" depart="9.00" departLane="139_4way_58to4way_68_0" departPos="5.10" departSpeed="0.00" departDelay="0.12" arrival="25.00" arrivalLane="139_4way_58to4way_68_0" arrivalPos="185.60" arrivalSpeed="14.33" duration="16.00" routeLength="180.50" waitingTime="0.00" waitingCount="0" stopTime="0.00" timeLoss="3.64" rerouteNo="0" devices="tripinfo_148" vType="DEFAULT_VEHTYPE" speedFactor="1.07" vaporized=""/>
    <tripinfo id="163" depart="10.00" departLane="30_4way_51to3way_50_0" departPos="5.10" departSpeed="0.00" departDelay="0.22" arrival="28.00" arrivalLane="30_4way_51to3way_50_0" arrivalPos="185.60" arrivalSpeed="12.27" duration="18.00" routeLength="180.50" waitingTime="0.00" waitingCount="0" stopTime="0.00" timeLoss="3.30" rerouteNo="0" devices="tripinfo_163" vType="DEFAULT_VEHTYPE" speedFactor="0.94" vaporized=""/>
    <tripinfo id="0" depart="0.00" departLane="131_4way_55to4way_54_0" departPos="5.10" departSpeed="0.00" departDelay="0.00" arrival="33.00" arrivalLane="129_4way_54to4way_53_0" arrivalPos="185.60" arrivalSpeed="12.68" duration="33.00" routeLength="380.50" waitingTime="0.00" waitingCount="0" stopTime="0.00" timeLoss="5.04" rerouteNo="0" devices="tripinfo_0" vType="DEFAULT_VEHTYPE" speedFactor="1.00" vaporized=""/>
    <tripinfo id="268" depart="17.00" departLane="72_4way_14to4way_24_0" departPos="5.10" departSpeed="0.00" departDelay="0.92" arrival="33.00" arrivalLane="72_4way_14to4way_24_0" arrivalPos="185.60" arrivalSpeed="16.64" duration="16.00" routeLength="180.50" waitingTime="0.00" waitingCount="0" stopTime="0.00" timeLoss="4.66" rerouteNo="0" devices="tripinfo_268" vType="DEFAULT_VEHTYPE" speedFactor="1.22" vaporized=""/>
    <tripinfo id="309" depart="19.00" departLane="152_4way_67to4way_68_0" departPos="5.10" departSpeed="0.00" departDelay="0.46" arrival="35.00" arrivalLane="152_4way_67to4way_68_0" arrivalPos="185.60" arrivalSpeed="14.51" duration="16.00" routeLength="180.50" waitingTime="0.00" waitingCount="0" stopTime="0.00" timeLoss="3.88" rerouteNo="0" devices="tripinfo_309" vType="DEFAULT_VEHTYPE" speedFactor="1.12" vaporized=""/>
    <tripinfo id="315" depart="19.00" departLane="19_3way_39to3way_49_0" departPos="5.10" departSpeed="0.00" departDelay="0.10" arrival="37.00" arrivalLane="19_3way_39to3way_49_0" arrivalPos="185.60" arrivalSpeed="12.69" duration="18.00" routeLength="180.50" waitingTime="0.00" waitingCount="0" stopTime="0.00" timeLoss="3.42" rerouteNo="0" devices="tripinfo_315" vType="DEFAULT_VEHTYPE" speedFactor="0.93" vaporized=""/>
    <tripinfo id="178" depart="11.00" departLane="168_4way_77to4way_87_0" departPos="5.10" departSpeed="0.00" departDelay="0.32" arrival="41.00" arrivalLane="63_4way_87to3way_97_0" arrivalPos="185.60" arrivalSpeed="13.66" duration="30.00" routeLength="380.50" waitingTime="0.00" waitingCount="0" stopTime="0.00" timeLoss="4.03" rerouteNo="0" devices="tripinfo_178" vType="DEFAULT_VEHTYPE" speedFactor="1.07" vaporized=""/>
    <tripinfo id="412" depart="25.00" departLane="146_4way_64to4way_65_0" departPos="5.10" departSpeed="0.00" departDelay="0.28" arrival="41.00" arrivalLane="146_4way_64to4way_65_0" arrivalPos="185.60" arrivalSpeed="14.70" duration="16.00" routeLength="180.50" waitingTime="0.00" waitingCount="0" stopTime="0.00" timeLoss="3.83" rerouteNo="0" devices="tripinfo_412" vType="DEFAULT_VEHTYPE" speedFactor="1.08" vaporized=""/>
    <tripinfo id="426" depart="26.00" departLane="79_4way_18to4way_28_0" departPos="5.10" departSpeed="0.00" departDelay="0.44" arrival="42.00" arrivalLane="79_4way_18to4way_28_0" arrivalPos="185.60" arrivalSpeed="14.86" duration="16.00" routeLength="180.50" waitingTime="0.00" waitingCount="0" stopTime="0.00" timeLoss="4.26" rerouteNo="0" devices="tripinfo_426" vType="DEFAULT_VEHTYPE" speedFactor="1.14" vaporized=""/>
    <tripinfo id="134" depart="9.00" departLane="138_4way_57to4way_67_0" departPos="5.10" departSpeed="0.00" departDelay="0.96" arrival="43.00" arrivalLane="152_4way_67to4way_68_0" arrivalPos="185.60" arrivalSpeed="12.79" duration="34.00" routeLength="375.13" waitingTime="0.00" waitingCount="0" stopTime="0.00" timeLoss="6.33" rerouteNo="0" devices="tripinfo_134" vType="DEFAULT_VEHTYPE" speedFactor="1.00" vaporized=""/>
    <tripinfo id="151" depart="10.00" departLane="53_3way_92to4way_82_0" departPos="5.10" departSpeed="0.00" departDelay="0.94" arrival="44.00" arrivalLane="170_4way_82to4way_81_0" arrivalPos="185.60" arrivalSpeed="13.33" duration="34.00" routeLength="375.13" waitingTime="0.00" waitingCount="0" stopTime="0.00" timeLoss="6.54" rerouteNo="0" devices="tripinfo_151" vType="DEFAULT_VEHTYPE" speedFactor="1.02" vaporized=""/>
    <tripinfo id="190" depart="12.00" departLane="168_4way_87to4way_77_0" departPos="5.10" departSpeed="0.00" departDelay="0.60" arrival="44.00" arrivalLane="165_4way_77to4way_76_0" arrivalPos="185.60" arrivalSpeed="14.06" duration="32.00" routeLength="375.13" waitingTime="0.00" waitingCount="0" stopTime="0.00" timeLoss="6.18" rerouteNo="0" devices="tripinfo_190" vType="DEFAULT_VEHTYPE" speedFactor="1.08" vaporized=""/>
    <tripinfo id="174" depart="11.00" departLane="67_4way_13to4way_12_0" departPos="5.10" departSpeed="0.00" departDelay="0.56" arrival="46.00" arrivalLane="68_4way_12to4way_22_0" arrivalPos="185.60" arrivalSpeed="12.56" duration="35.00" routeLength="375.13" waitingTime="0.00" waitingCount="0" stopTime="0.00" timeLoss="5.26" rerouteNo="0" devices="tripinfo_174" vType="DEFAULT_VEHTYPE" speedFactor="0.94" vaporized=""/>
    <tripinfo id="33" depart="2.00" departLane="6_3way_29to3way_19_0" departPos="5.10" departSpeed="0.00" departDelay="0.02" arrival="49.00" arrivalLane="77_4way_18to4way_17_0" arrivalPos="185.60" arrivalSpeed="14.06" duration="47.00" routeLength="575.13" waitingTime="0.00" waitingCount="0" stopTime="0.00" timeLoss="6.55" rerouteNo="0" devices="tripinfo_33" vType="DEFAULT_VEHTYPE" speedFactor="1.06" vaporized=""/>
    <tripinfo id="333" depart="20.00" departLane="161_4way_74to4way_75_0" departPos="5.10" departSpeed="0.00" departDelay="0.02" arrival="49.00" arrivalLane="163_4way_75to4way_76_0" arrivalPos="185.60" arrivalSpeed="14.55" duration="29.00" routeLength="380.50" waitingTime="0.00" waitingCount="0" stopTime="0.00" timeLoss="4.43" rerouteNo="0" devices="tripinfo_333" vType="DEFAULT_VEHTYPE" speedFactor="1.14" vaporized=""/>
    <tripinfo id="554" depart="34.00" departLane="165_4way_76to4way_77_0" departPos="5.10" departSpeed="0.00" departDelay="0.76" arrival="51.00" arrivalLane="165_4way_76to4way_77_0" arrivalPos="185.60" arrivalSpeed="13.23" duration="17.00" routeLength="180.50" waitingTime="0.00" waitingCount="0" stopTime="0.00" timeLoss="3.29" rerouteNo="0" devices="tripinfo_554" vType="DEFAULT_VEHTYPE" speedFactor="0.97" vaporized=""/>
    <tripinfo id="221" depart="14.00" departLane="167_4way_77to4way_78_0" departPos="5.10" departSpeed="0.00" departDelay="0.74" arrival="52.00" arrivalLane="154_4way_78to4way_68_0" arrivalPos="185.60" arrivalSpeed="11.87" duration="38.00" routeLength="375.13" waitingTime="0.00" waitingCount="0" stopTime="0.00" timeLoss="6.19" rerouteNo="0" devices="tripinfo_221" vType="DEFAULT_VEHTYPE" speedFactor="0.90" vaporized=""/>
    <tripinfo id="526" depart="35.00" departLane="2_3way_2to3way_1_0" departPos="5.10" departSpeed="0.00" departDelay="3.44" arrival="52.00" arrivalLane="2_3way_2to3way_1_0" arrivalPos="185.60" arrivalSpeed="13.12" duration="17.00" routeLength="180.50" waitingTime="0.00" waitingCount="0" stopTime="0.00" timeLoss="4.31" rerouteNo="0" devices="tripinfo_526" vType="DEFAULT_VEHTYPE" speedFactor="1.06" vaporized=""/>
    <tripinfo id="186" depart="14.00" departLane="137_4way_58to4way_57_0" departPos="5.10" departSpeed="0.00" departDelay="2.84" arrival="53.00" arrivalLane="135_4way_57to4way_56_0" arrivalPos="185.60" arrivalSpeed="11.08" duration="39.00" routeLength="380.50" waitingTime="0.00" waitingCount="0" stopTime="0.00" timeLoss="7.17" rerouteNo="0" devices="tripinfo_186" vType="DEFAULT_VEHTYPE" speedFactor="0.87" vaporized=""/>
    <tripinfo id="330" depart="20.00" departLane="146_4way_64to4way_65_0" departPos="5.10" departSpeed="0.00" departDelay="0.20" arrival="53.00" arrivalLane="134_4way_65to4way_55_0" arrivalPos="185.60" arrivalSpeed="14.39" duration="33.00" routeLength="375.13" waitingTime="0.00" waitingCount="0" stopTime="0.00" timeLoss="7.23" rerouteNo="0" devices="tripinfo_330" vType="DEFAULT_VEHTYPE" speedFactor="1.08" vaporized=""/>
    <tripinfo id="303" depart="19.00" departLane="32_3way_59to4way_58_0" departPos="5.10" departSpeed="0.00" departDelay="0.82" arrival="54.00" arrivalLane="139_4way_58to4way_68_0" arrivalPos="185.60" arrivalSpeed="13.79" duration="35.00" routeLength="375.13" waitingTime="0.00" waitingCount="0" stopTime="0.00" timeLoss="7.38" rerouteNo="0" devices="tripinfo_303" vType="DEFAULT_VEHTYPE" speedFactor="1.02" vaporized=""/>
    <tripinfo id="380" depart="23.00" departLane="135_4way_56to4way_57_0" departPos="5.10" departSpeed="0.00" departDelay="0.20" arrival="56.00" arrivalLane="137_4way_57to4way_58_0" arrivalPos="185.60" arrivalSpeed="12.81" duration="33.00" routeLength="380.50" waitingTime="0.00" waitingCount="0" stopTime="0.00" timeLoss="3.89" rerouteNo="0" devices="tripinfo_380" vType="DEFAULT_VEHTYPE" speedFactor="0.95" vaporized=""/>
    <tripinfo id="652" depart="40.00" departLane="137_4way_58to4way_57_0" departPos="5.10" departSpeed="0.00" departDelay="0.88" arrival="57.00" arrivalLane="137_4way_58to4way_57_0" arrivalPos="185.60" arrivalSpeed="13.14" duration="17.00" routeLength="180.50" waitingTime="0.00" waitingCount="0" stopTime="0.00" timeLoss="3.34" rerouteNo="0" devices="tripinfo_652" vType="DEFAULT_VEHTYPE" speedFactor="0.97" vaporized=""/>
    <tripinfo id="669" depart="43.00" departLane="17_3way_30to3way_40_0" departPos="5.10" departSpeed="0.00" departDelay="2.86" arrival="59.00" arrivalLane="17_3way_30to3way_40_0" arrivalPos="185.60" arrivalSpeed="14.72" duration="16.00" routeLength="180.50" waitingTime="0.00" waitingCount="0" stopTime="0.00" timeLoss="3.86" rerouteNo="0" devices="tripinfo_669" vType="DEFAULT_VEHTYPE" speedFactor="1.08" vaporized=""/>
    <tripinfo id="696" depart="42.00" departLane="176_4way_87to4way_88_0" departPos="5.10" departSpeed="0.00" departDelay="0.24" arrival="60.00" arrivalLane="176_4way_87to4way_88_0" arrivalPos="185.60" arrivalSpeed="12.54" duration="18.00" routeLength="180.50" waitingTime="0.00" waitingCount="0" stopTime="0.00" timeLoss="3.67" rerouteNo="0" devices="tripinfo_696" vType="DEFAULT_VEHTYPE" speedFactor="0.94" vaporized=""/>
    <tripinfo id="724" depart="44.00" departLane="167_4way_77to4way_78_0" departPos="5.10" departSpeed="0.00" departDelay="0.56" arrival="60.00" arrivalLane="167_4way_77to4way_78_0" arrivalPos="185.60" arrivalSpeed="15.82" duration="16.00" routeLength="180.50" waitingTime="0.00" waitingCount="0" stopTime="0.00" timeLoss="3.86" rerouteNo="0" devices="tripinfo_724" vType="DEFAULT_VEHTYPE" speedFactor="1.16" vaporized=""/>
    <tripinfo id="271" depart="22.00" departLane="65_4way_11to4way_12_0" departPos="5.10" departSpeed="0.00" departDelay="5.74" arrival="61.00" arrivalLane="67_4way_12to4way_13_0" arrivalPos="185.60" arrivalSpeed="8.41" duration="39.00" routeLength="380.50" waitingTime="0.00" waitingCount="0" stopTime="0.00" timeLoss="8.24" rerouteNo="0" devices="tripinfo_271" vType="DEFAULT_VEHTYPE" speedFactor="0.90" vaporized=""/>
    <tripinfo id="292" depart="18.00" departLane="165_4way_77to4way_76_0" departPos="5.10" departSpeed="0.00" departDelay="0.48" arrival="62.00" arrivalLane="164_4way_75to4way_85_0" arrivalPos="185.60" arrivalSpeed="15.04" duration="44.00" routeLength="575.13" waitingTime="0.00" waitingCount="0" stopTime="0.00" timeLoss="6.99" rerouteNo="0" devices="tripinfo_292" vType="DEFAULT_VEHTYPE" speedFactor="1.14" vaporized=""/>
    <tripinfo id="431" depart="26.00" departLane="63_3way_97to4way_87_0" departPos="5.10" departSpeed="0.00" departDelay="0.14" arrival="62.00" arrivalLane="168_4way_87to4way_77_0" arrivalPos="185.60" arrivalSpeed="6.75" duration="36.00" routeLength="380.50" waitingTime="0.00" waitingCount="0" stopTime="0.00" timeLoss="8.74" rerouteNo="0" devices="tripinfo_431" vType="DEFAULT_VEHTYPE" speedFactor="1.01" vaporized=""/>
    <tripinfo id="230" depart="14.00" departLane="17_3way_30to3way_40_0" departPos="5.10" departSpeed="0.00" departDelay="0.20" arrival="66.00" arrivalLane="110_4way_41to4way_42_0" arrivalPos="185.60" arrivalSpeed="12.66" duration="52.00" routeLength="575.13" waitingTime="0.00" waitingCount="0" stopTime="0.00" timeLoss="8.59" rerouteNo="0" devices="tripinfo_230" vType="DEFAULT_VEHTYPE" speedFactor="0.99" vaporized=""/>
    <tripinfo id="722" depart="46.00" departLane="100_4way_43to4way_33_0" departPos="5.10" departSpeed="0.00" departDelay="2.68" arrival="66.00" arrivalLane="100_4way_43to4way_33_0" arrivalPos="185.60" arrivalSpeed="10.16" duration="20.00" routeLength="180.50" waitingTime="0.00" waitingCount="0" stopTime="0.00" timeLoss="3.00" rerouteNo="0" devices="tripinfo_722" vType="DEFAULT_VEHTYPE" speedFactor="0.77" vaporized=""/>
    <tripinfo id="434" depart="31.00" departLane="95_4way_31to4way_32_0" departPos="5.10" departSpeed="0.00" departDelay="4.96" arrival="67.00" arrivalLane="83_4way_32to4way_22_0" arrivalPos="185.60" arrivalSpeed="13.29" duration="36.00" routeLength="375.13" waitingTime="1.00" waitingCount="1" stopTime="0.00" timeLoss="7.19" rerouteNo="0" devices="tripinfo_434" vType="DEFAULT_VEHTYPE" speedFactor="0.98" vaporized=""/>
    <tripinfo id="787" depart="48.00" departLane="22_3way_4to4way_14_0" departPos="5.10" departSpeed="0.00" departDelay="0.78" arrival="67.00" arrivalLane="22_3way_4to4way_14_0" arrivalPos="185.60" arrivalSpeed="11.36" duration="19.00" routeLength="180.50" waitingTime="0.00" waitingCount="0" stopTime="0.00" timeLoss="3.78" rerouteNo="0" devices="tripinfo_787" vType="DEFAULT_VEHTYPE" speedFactor="0.87" vaporized=""/>
    <tripinfo id="830" depart="50.00" departLane="30_4way_51to3way_50_0" departPos="5.10" departSpeed="0.00" departDelay="0.20" arrival="67.00" arrivalLane="30_4way_51to3way_50_0" arrivalPos="185.60" arrivalSpeed="13.50" duration="17.00" routeLength="180.50" waitingTime="0.00" waitingCount="0" stopTime="0.00" timeLoss="3.23" rerouteNo="0" devices="tripinfo_830" vType="DEFAULT_VEHTYPE" speedFactor="0.98" vaporized=""/>
    <tripinfo id="516" depart="31.00" departLane="134_4way_65to4way_55_0" departPos="5.10" departSpeed="0.00" departDelay="0.04" arrival="68.00" arrivalLane="131_4way_55to4way_54_0" arrivalPos="185.60" arrivalSpeed="11.11" duration="37.00" routeLength="375.13" waitingTime="0.00" waitingCount="0" stopTime="0.00" timeLoss="5.60" rerouteNo="0" devices="tripinfo_516" vType="DEFAULT_VEHTYPE" speedFactor="0.89" vaporized=""/>
    <tripinfo id="18" depart="5.00" departLane="102_4way_44to4way_34_0" departPos="5.10" departSpeed="0.00" departDelay="3.92" arrival="70.00" arrivalLane="102_4way_44to4way_34_0" arrivalPos="185.60" arrivalSpeed="5.59" duration="65.00" routeLength="180.50" waitingTime="43.00" waitingCount="1" stopTime="0.00" timeLoss="51.28" rerouteNo="0" devices="tripinfo_18" vType="DEFAULT_VEHTYPE" speedFactor="0.96" vaporized=""/>
    <tripinfo id="61" depart="4.00" departLane="87_4way_34to4way_24_0" departPos="5.10" departSpeed="0.00" departDelay="0.34" arrival="70.00" arrivalLane="67_4way_13to4way_12_0" arrivalPos="185.60" arrivalSpeed="12.88" duration="66.00" routeLength="775.13" waitingTime="0.00" waitingCount="0" stopTime="0.00" timeLoss="9.04" rerouteNo="0" devices="tripinfo_61" vType="DEFAULT_VEHTYPE" speedFactor="1.01" vaporized=""/>
    <tripinfo id="119" depart="9.00" departLane="26_3way_49to4way_48_0" departPos="5.10" departSpeed="0.00" departDelay="1.86" arrival="70.00" arrivalLane="108_4way_47to4way_37_0" arrivalPos="185.60" arrivalSpeed="5.65" duration="61.00" routeLength="580.30" waitingTime="2.00" waitingCount="1" stopTime="0.00" timeLoss="13.75" rerouteNo="0" devices="tripinfo_119" vType="DEFAULT_VEHTYPE" speedFactor="0.90" vaporized=""/>
    <tripinfo id="145" depart="9.00" departLane="61_3way_96to4way_86_0" departPos="5.10" departSpeed="0.00" departDelay="0.30" arrival="70.00" arrivalLane="166_4way_86to4way_76_0" arrivalPos="185.60" arrivalSpeed="6.18" duration="61.00" routeLength="380.50" waitingTime="23.00" waitingCount="1" stopTime="0.00" timeLoss="32.27" rerouteNo="0" devices="tripinfo_145" vType="DEFAULT_VEHTYPE" speedFactor="0.96" vaporized=""/>
    <tripinfo id="155" depart="10.00" departLane="7_3way_19to3way_8_0" departPos="5.10" departSpeed="0.00" departDelay="0.70" arrival="70.00" arrivalLane="7_3way_19to3way_8_0" arrivalPos="382.40" arrivalSpeed="6.28" duration="60.00" routeLength="377.30" waitingTime="20.00" waitingCount="1" stopTime="0.00" timeLoss="30.91" rerouteNo="0" devices="tripinfo_155" vType="DEFAULT_VEHTYPE" speedFactor="0.94" vaporized=""/>
    <tripinfo id="317" depart="20.00" departLane="92_4way_28to4way_27_0" departPos="5.10" departSpeed="0.00" departDelay="0.98" arrival="70.00" arrivalLane="92_4way_28to4way_27_0" arrivalPos="185.60" arrivalSpeed="5.71" duration="50.00" routeLength="180.50" waitingTime="28.00" waitingCount="1" stopTime="0.00" timeLoss="38.15" rerouteNo="0" devices="tripinfo_317" vType="DEFAULT_VEHTYPE" speedFactor="1.11" vaporized=""/>
    <tripinfo id="322" depart="20.00" departLane="171_4way_83to4way_82_0" departPos="5.10" departSpeed="0.00" departDelay="0.68" arrival="70.00" arrivalLane="171_4way_83to4way_82_0" arrivalPos="185.60" arrivalSpeed="5.05" duration="50.00" routeLength="180.50" waitingTime="30.00" waitingCount="1" stopTime="0.00" timeLoss="37.86" rerouteNo="0" devices="tripinfo_322" vType="DEFAULT_VEHTYPE" speedFactor="1.08" vaporized=""/>
    <tripinfo id="726" depart="44.00" departLane="88_4way_25to4way_26_0" departPos="5.10" departSpeed="0.00" departDelay="0.44" arrival="70.00" arrivalLane="88_4way_25to4way_26_0" arrivalPos="185.60" arrivalSpeed="6.24" duration="26.00" routeLength="180.50" waitingTime="2.00" waitingCount="1" stopTime="0.00" timeLoss="10.50" rerouteNo="0" devices="tripinfo_726" vType="DEFAULT_VEHTYPE" speedFactor="0.85" vaporized=""/>
    <tripinfo id="899" depart="54.00" departLane="116_4way_44to4way_45_0" departPos="5.10" departSpeed="0.00" departDelay="0.06" arrival="70.00" arrivalLane="116_4way_44to4way_45_0" arrivalPos="185.60" arrivalSpeed="14.85" duration="16.00" routeLength="180.50" waitingTime="0.00" waitingCount="0" stopTime="0.00" timeLoss="4.02" rerouteNo="0" devices="tripinfo_899" vType="DEFAULT_VEHTYPE" speedFactor="1.15" vaporized=""/>
    <tripinfo id="513" depart="31.00" departLane="41_3way_70to3way_80_0" departPos="5.10" departSpeed="0.00" departDelay="0.22" arrival="71.00" arrivalLane="41_3way_70to3way_80_0" arrivalPos="185.60" arrivalSpeed="4.89" duration="40.00" routeLength="180.50" waitingTime="18.00" waitingCount="1" stopTime="0.00" timeLoss="24.57" rerouteNo="0" devices="tripinfo_513" vType="DEFAULT_VEHTYPE" speedFactor="0.85" vaporized=""/>
    <tripinfo id="590" depart="36.00" departLane="168_4way_87to4way_77_0" departPos="5.10" departSpeed="0.00" departDelay="0.60" arrival="71.00" arrivalLane="165_4way_77to4way_76_0" arrivalPos="185.60" arrivalSpeed="13.12" duration="35.00" routeLength="375.13" waitingTime="0.00" waitingCount="0" stopTime="0.00" timeLoss="6.07" rerouteNo="0" devices="tripinfo_590" vType="DEFAULT_VEHTYPE" speedFactor="0.98" vaporized=""/>
    <tripinfo id="313" depart="21.00" departLane="85_4way_33to4way_23_0" departPos="5.10" departSpeed="0.00" departDelay="2.22" arrival="72.00" arrivalLane="82_4way_23to4way_22_0" arrivalPos="185.60" arrivalSpeed="6.18" duration="51.00" routeLength="375.13" waitingTime="6.00" waitingCount="1" stopTime="0.00" timeLoss="20.17" rerouteNo="0" devices="tripinfo_313" vType="DEFAULT_VEHTYPE" speedFactor="0.90" vaporized=""/>
    <tripinfo id="881" depart="53.00" departLane="62_3way_98to3way_97_0" departPos="5.10" departSpeed="0.00" departDelay="0.14" arrival="72.00" arrivalLane="62_3way_98to3way_97_0" arrivalPos="185.60" arrivalSpeed="11.65" duration="19.00" routeLength="180.50" waitingTime="0.00" waitingCount="0" stopTime="0.00" timeLoss="3.88" rerouteNo="0" devices="tripinfo_881" vType="DEFAULT_VEHTYPE" speedFactor="0.90" vaporized=""/>
    <tripinfo id="20" depart="2.00" departLane="80_4way_22to4way_21_0" departPos="5.10" departSpeed="0.00" departDelay="0.80" arrival="73.00" arrivalLane="81_4way_21to4way_31_0" arrivalPos="185.60" arrivalSpeed="7.82" duration="71.00" routeLength="375.13" waitingTime="27.00" waitingCount="1" stopTime="0.00" timeLoss="39.31" rerouteNo="0" devices="tripinfo_20" vType="DEFAULT_VEHTYPE" speedFactor="0.89" vaporized=""/>
    <tripinfo id="90" depart="6.00" departLane="52_3way_92to3way_93_0" departPos="5.10" departSpeed="0.00" departDelay="0.60" arrival="73.00" arrivalLane="55_3way_93to4way_83_0" arrivalPos="185.60" arrivalSpeed="6.68" duration="67.00" routeLength="375.13" waitingTime="26.00" waitingCount="1" stopTime="0.00" timeLoss="38.00" rerouteNo="0" devices="tripinfo_90" vType="DEFAULT_VEHTYPE" speedFactor="0.95" vaporized=""/>
    <tripinfo id="214" depart="13.00" departLane="68_4way_12to4way_22_0" departPos="5.10" departSpeed="0.00" departDelay="0.16" arrival="73.00" arrivalLane="82_4way_22to4way_23_0" arrivalPos="185.60" arrivalSpeed="8.05" duration="60.00" routeLength="375.13" waitingTime="19.00" waitingCount="1" stopTime="0.00" timeLoss="32.05" rerouteNo="0" devices="tripinfo_214" vType="DEFAULT_VEHTYPE" speedFactor="1.00" vaporized=""/>
    <tripinfo id="347" depart="21.00" departLane="7_3way_19to3way_8_0" departPos="5.10" departSpeed="0.00" departDelay="0.18" arrival="73.00" arrivalLane="7_3way_19to3way_8_0" arrivalPos="382.40" arrivalSpeed="8.64" duration="52.00" routeLength="377.30" waitingTime="14.00" waitingCount="1" stopTime="0.00" timeLoss="24.64" rerouteNo="0" devices="tripinfo_347" vType="DEFAULT_VEHTYPE" speedFactor="1.01" vaporized=""/>
    <tripinfo id="354" depart="25.00" departLane="85_4way_33to4way_23_0" departPos="5.10" departSpeed="0.00" departDelay="3.76" arrival="74.00" arrivalLane="82_4way_23to4way_22_0" arrivalPos="185.60" arrivalSpeed="9.59" duration="49.00" routeLength="375.13" waitingTime="4.00" waitingCount="1" stopTime="0.00" timeLoss="18.84" rerouteNo="0" devices="tripinfo_354" vType="DEFAULT_VEHTYPE" speedFactor="0.91" vaporized=""/>
    <tripinfo id="19" depart="2.00" departLane="89_4way_25to4way_35_0" departPos="5.10" departSpeed="0.00" departDelay="0.86" arrival="75.00" arrivalLane="107_4way_37to4way_38_0" arrivalPos="185.60" arrivalSpeed="11.25" duration="73.00" routeLength="775.13" waitingTime="0.00" waitingCount="0" stopTime="0.00" timeLoss="8.48" rerouteNo="0" devices="tripinfo_19" vType="DEFAULT_VEHTYPE" speedFactor="0.89" vaporized=""/>
    <tripinfo id="343" depart="24.00" departLane="110_4way_41to4way_42_0" departPos="5.10" departSpeed="0.00" departDelay="3.42" arrival="75.00" arrivalLane="100_4way_43to4way_33_0" arrivalPos="185.60" arrivalSpeed="13.79" duration="51.00" routeLength="575.13" waitingTime="0.00" waitingCount="0" stopTime="0.00" timeLoss="9.66" rerouteNo="0" devices="tripinfo_343" vType="DEFAULT_VEHTYPE" speedFactor="1.03" vaporized=""/>
    <tripinfo id="673" depart="41.00" departLane="103_4way_35to4way_36_0" departPos="5.10" departSpeed="0.00" departDelay="0.62" arrival="75.00" arrivalLane="91_4way_36to4way_26_0" arrivalPos="185.60" arrivalSpeed="13.18" duration="34.00" routeLength="375.13" waitingTime="0.00" waitingCount="0" stopTime="0.00" timeLoss="6.85" rerouteNo="0" devices="tripinfo_673" vType="DEFAULT_VEHTYPE" speedFactor="1.04" vaporized=""/>
    <tripinfo id="711" depart="43.00" departLane="172_4way_84to4way_83_0" departPos="5.10" departSpeed="0.00" departDelay="0.34" arrival="75.00" arrivalLane="171_4way_83to4way_82_0" arrivalPos="185.60" arrivalSpeed="10.62" duration="32.00" routeLength="380.50" waitingTime="0.00" waitingCount="0" stopTime="0.00" timeLoss="5.36" rerouteNo="0" devices="tripinfo_711" vType="DEFAULT_VEHTYPE" speedFactor="1.03" vaporized=""/>
    <tripinfo id="923" depart="56.00" departLane="45_3way_8to4way_18_0" departPos="5.10" departSpeed="0.00" departDelay="0.62" arrival="75.00" arrivalLane="45_3way_8to4way_18_0" arrivalPos="185.60" arrivalSpeed="9.88" duration="19.00" routeLength="180.50" waitingTime="0.00" waitingCount="0" stopTime="0.00" timeLoss="3.56" rerouteNo="0" devices="tripinfo_923" vType="DEFAULT_VEHTYPE" speedFactor="0.85" vaporized=""/>
    <tripinfo id="227" depart="14.00" departLane="30_4way_51to3way_50_0" departPos="5.10" departSpeed="0.00" departDelay="0.38" arrival="76.00" arrivalLane="29_3way_50to3way_60_0" arrivalPos="185.60" arrivalSpeed="7.08" duration="62.00" routeLength="375.13" waitingTime="19.00" waitingCount="1" stopTime="0.00" timeLoss="33.61" rerouteNo="0" devices="tripinfo_227" vType="DEFAULT_VEHTYPE" speedFactor="1.00" vaporized=""/>
    <tripinfo id="262" depart="19.00" departLane="65_4way_11to4way_12_0" departPos="5.10" departSpeed="0.00" departDelay="3.28" arrival="76.00" arrivalLane="16_4way_13to3way_3_0" arrivalPos="185.60" arrivalSpeed="11.66" duration="57.00" routeLength="575.13" waitingTime="0.00" waitingCount="0" stopTime="0.00" timeLoss="11.42" rerouteNo="0" devices="tripinfo_262" vType="DEFAULT_VEHTYPE" speedFactor="0.93" vaporized=""/>
    <tripinfo id="781" depart="47.00" departLane="15_3way_4to3way_3_0" departPos="5.10" departSpeed="0.00" departDelay="0.14" arrival="76.00" arrivalLane="9_3way_3to3way_2_0" arrivalPos="185.60" arrivalSpeed="15.73" duration="29.00" routeLength="380.50" waitingTime="0.00" waitingCount="0" stopTime="0.00" timeLoss="4.58" rerouteNo="0" devices="tripinfo_781" vType="DEFAULT_VEHTYPE" speedFactor="1.15" vaporized=""/>
    <tripinfo id="179" depart="11.00" departLane="113_4way_42to4way_52_0" departPos="5.10" departSpeed="0.00" departDelay="0.26" arrival="77.00" arrivalLane="127_4way_52to4way_53_0" arrivalPos="185.60" arrivalSpeed="6.27" duration="66.00" routeLength="375.13" waitingTime="23.00" waitingCount="1" stopTime="0.00" timeLoss="36.95" rerouteNo="0" devices="tripinfo_179" vType="DEFAULT_VEHTYPE" speedFactor="0.97" vaporized=""/>
    <tripinfo id="201" depart="13.00" departLane="22_3way_4to4way_14_0" departPos="5.10" departSpeed="0.00" departDelay="0.94" arrival="77.00" arrivalLane="87_4way_24to4way_34_0" arrivalPos="185.60" arrivalSpeed="9.43" duration="64.00" routeLength="580.50" waitingTime="5.00" waitingCount="1" stopTime="0.00" timeLoss="18.94" rerouteNo="0" devices="tripinfo_201" vType="DEFAULT_VEHTYPE" speedFactor="0.93" vaporized=""/>
    <tripinfo id="943" depart="57.00" departLane="174_4way_85to4way_86_0" departPos="5.10" departSpeed="0.00" departDelay="0.42" arrival="77.00" arrivalLane="174_4way_85to4way_86_0" arrivalPos="185.60" arrivalSpeed="6.83" duration="20.00" routeLength="180.50" waitingTime="0.00" waitingCount="0" stopTime="0.00" timeLoss="5.61" rerouteNo="0" devices="tripinfo_943" vType="DEFAULT_VEHTYPE" speedFactor="0.90" vaporized=""/>
    <tripinfo id="666" depart="40.00" departLane="103_4way_36to4way_35_0" departPos="5.10" departSpeed="0.00" departDelay="0.04" arrival="79.00" arrivalLane="103_4way_36to4way_35_0" arrivalPos="185.60" arrivalSpeed="11.23" duration="39.00" routeLength="180.50" waitingTime="14.00" waitingCount="1" stopTime="0.00" timeLoss="25.50" rerouteNo="0" devices="tripinfo_666" vType="DEFAULT_VEHTYPE" speedFactor="0.98" vaporized=""/>
    <tripinfo id="866" depart="54.00" departLane="150_4way_66to4way_67_0" departPos="5.10" departSpeed="0.00" departDelay="2.04" arrival="80.00" arrivalLane="150_4way_66to4way_67_0" arrivalPos="185.60" arrivalSpeed="9.55" duration="26.00" routeLength="180.50" waitingTime="0.00" waitingCount="0" stopTime="0.00" timeLoss="11.36" rerouteNo="0" devices="tripinfo_866" vType="DEFAULT_VEHTYPE" speedFactor="0.92" vaporized=""/>
    <tripinfo id="974" depart="62.00" departLane="43_3way_89to3way_79_0" departPos="5.10" departSpeed="0.00" departDelay="3.56" arrival="80.00" arrivalLane="43_3way_89to3way_79_0" arrivalPos="185.60" arrivalSpeed="13.16" duration="18.00" routeLength="180.50" waitingTime="0.00" waitingCount="0" stopTime="0.00" timeLoss="5.25" rerouteNo="0" devices="tripinfo_974" vType="DEFAULT_VEHTYPE" speedFactor="1.09" vaporized=""/>
    <tripinfo id="967" depart="62.00" departLane="171_4way_83to4way_82_0" departPos="5.10" departSpeed="0.00" departDelay="3.98" arrival="81.00" arrivalLane="171_4way_83to4way_82_0" arrivalPos="185.60" arrivalSpeed="11.05" duration="19.00" routeLength="180.50" waitingTime="0.00" waitingCount="0" stopTime="0.00" timeLoss="3.18" rerouteNo="0" devices="tripinfo_967" vType="DEFAULT_VEHTYPE" speedFactor="0.84" vaporized=""/>