<?xml version="1.0" encoding="UTF-8"?>

<!-- generated on 2023-07-27 12:45:45 by Eclipse SUMO sumo Version 1.12.0
<configuration xmlns:xsi="http://www.w3.org/2001/XMLSchema-instance" xsi:noNamespaceSchemaLocation="http://sumo.dlr.de/xsd/sumoConfiguration.xsd">

    <input>
        <net-file value="../../data_generation/sq.net.xml"/>
        <route-files value="../../data_generation/sq.rou.xml"/>
    </input>

    <output>
        <tripinfo-output value="tripinfo.xml"/>
        <statistic-output value="statistic.xml"/>
    </output>

    <time>
        <begin value="0"/>
        <end value="3600"/>
    </time>

    <processing>
        <time-to-teleport value="-1"/>
    </processing>

    <traci_server>
        <remote-port value="43077"/>
    </traci_server>

    <random_number>
        <seed value="1395"/>
    </random_number>

    <gui_only>
        <gui-settings-file value="../../data_generation/view_HY_0402.xml"/>
    </gui_only>

</configuration>
-->

<tripinfos xmlns:xsi="http://www.w3.org/2001/XMLSchema-instance" xsi:noNamespaceSchemaLocation="http://sumo.dlr.de/xsd/tripinfo_file.xsd">
    <tripinfo id="1" depart="1.00" departLane="23_3way_5to4way_6_0" departPos="5.10" departSpeed="0.00" departDelay="0.67" arrival="11.00" arrivalLane="23_3way_5to4way_6_0" arrivalPos="85.60" arrivalSpeed="13.41" duration="10.00" routeLength="80.50" waitingTime="0.00" waitingCount="0" stopTime="0.00" timeLoss="3.58" rerouteNo="0" devices="tripinfo_1" vType="DEFAULT_VEHTYPE" speedFactor="1.04" vaporized=""/>
    <tripinfo id="0" depart="0.00" departLane="35_4way_7to4way_6_0" departPos="5.10" departSpeed="0.00" departDelay="0.00" arrival="17.00" arrivalLane="23_4way_6to3way_5_0" arrivalPos="85.60" arrivalSpeed="13.37" duration="17.00" routeLength="180.50" waitingTime="0.00" waitingCount="0" stopTime="0.00" timeLoss="3.63" rerouteNo="0" devices="tripinfo_0" vType="DEFAULT_VEHTYPE" speedFactor="1.00" vaporized=""/>
    <tripinfo id="16" depart="6.00" departLane="3_4way_6to3way_1_0" departPos="5.10" departSpeed="0.00" departDelay="0.67" arrival="17.00" arrivalLane="3_4way_6to3way_1_0" arrivalPos="85.60" arrivalSpeed="11.30" duration="11.00" routeLength="80.50" waitingTime="0.00" waitingCount="0" stopTime="0.00" timeLoss="3.69" rerouteNo="0" devices="tripinfo_16" vType="DEFAULT_VEHTYPE" speedFactor="0.90" vaporized=""/>
    <tripinfo id="21" depart="7.00" departLane="18_3way_22to3way_23_0" departPos="5.10" departSpeed="0.00" departDelay="0.00" arrival="17.00" arrivalLane="18_3way_22to3way_23_0" arrivalPos="85.60" arrivalSpeed="11.37" duration="10.00" routeLength="80.50" waitingTime="0.00" waitingCount="0" stopTime="0.00" timeLoss="2.45" rerouteNo="0" devices="tripinfo_21" vType="DEFAULT_VEHTYPE" speedFactor="0.82" vaporized=""/>
    <tripinfo id="2" depart="1.00" departLane="26_4way_11to4way_16_0" departPos="5.10" departSpeed="0.00" departDelay="0.33" arrival="18.00" arrivalLane="17_4way_16to3way_21_0" arrivalPos="85.60" arrivalSpeed="13.60" duration="17.00" routeLength="180.50" waitingTime="0.00" waitingCount="0" stopTime="0.00" timeLoss="3.93" rerouteNo="0" devices="tripinfo_2" vType="DEFAULT_VEHTYPE" speedFactor="1.04" vaporized=""/>
    <tripinfo id="24" depart="8.00" departLane="8_3way_9to3way_14_0" departPos="5.10" departSpeed="0.00" departDelay="0.00" arrival="18.00" arrivalLane="8_3way_9to3way_14_0" arrivalPos="85.60" arrivalSpeed="12.69" duration="10.00" routeLength="80.50" waitingTime="0.00" waitingCount="0" stopTime="0.00" timeLoss="3.19" rerouteNo="0" devices="tripinfo_24" vType="DEFAULT_VEHTYPE" speedFactor="0.97" vaporized=""/>
    <tripinfo id="15" depart="5.00" departLane="5_3way_5to3way_10_0" departPos="5.10" departSpeed="0.00" departDelay="0.00" arrival="22.00" arrivalLane="4_3way_10to3way_15_0" arrivalPos="85.60" arrivalSpeed="13.80" duration="17.00" routeLength="180.50" waitingTime="0.00" waitingCount="0" stopTime="0.00" timeLoss="4.37" rerouteNo="0" devices="tripinfo_15" vType="DEFAULT_VEHTYPE" speedFactor="1.05" vaporized=""/>
    <tripinfo id="9" depart="3.00" departLane="29_4way_12to4way_17_0" departPos="5.10" departSpeed="0.00" departDelay="0.00" arrival="23.00" arrivalLane="34_4way_17to4way_18_0" arrivalPos="85.60" arrivalSpeed="11.98" duration="20.00" routeLength="175.13" waitingTime="0.00" waitingCount="0" stopTime="0.00" timeLoss="5.20" rerouteNo="0" devices="tripinfo_9" vType="DEFAULT_VEHTYPE" speedFactor="0.91" vaporized=""/>
    <tripinfo id="22" depart="8.00" departLane="4_3way_15to3way_10_0" departPos="5.10" departSpeed="0.00" departDelay="0.67" arrival="25.00" arrivalLane="5_3way_10to3way_5_0" arrivalPos="85.60" arrivalSpeed="13.55" duration="17.00" routeLength="180.50" waitingTime="0.00" waitingCount="0" stopTime="0.00" timeLoss="3.22" rerouteNo="0" devices="tripinfo_22" vType="DEFAULT_VEHTYPE" speedFactor="1.00" vaporized=""/>
    <tripinfo id="27" depart="9.00" departLane="21_3way_3to3way_9_0" departPos="5.10" departSpeed="0.00" departDelay="0.00" arrival="26.00" arrivalLane="21_3way_3to3way_9_0" arrivalPos="188.80" arrivalSpeed="14.12" duration="17.00" routeLength="183.70" waitingTime="0.00" waitingCount="0" stopTime="0.00" timeLoss="3.15" rerouteNo="0" devices="tripinfo_27" vType="DEFAULT_VEHTYPE" speedFactor="1.03" vaporized=""/>
    <tripinfo id="4" depart="2.00" departLane="16_3way_21to3way_22_0" departPos="5.10" departSpeed="0.00" departDelay="0.67" arrival="28.00" arrivalLane="20_3way_23to4way_18_0" arrivalPos="85.60" arrivalSpeed="14.08" duration="26.00" routeLength="275.13" waitingTime="0.00" waitingCount="0" stopTime="0.00" timeLoss="6.05" rerouteNo="0" devices="tripinfo_4" vType="DEFAULT_VEHTYPE" speedFactor="1.02" vaporized=""/>
    <tripinfo id="37" depart="13.00" departLane="16_3way_21to3way_22_0" departPos="5.10" departSpeed="0.00" departDelay="0.67" arrival="30.00" arrivalLane="18_3way_22to3way_23_0" arrivalPos="85.60" arrivalSpeed="12.64" duration="17.00" routeLength="180.50" waitingTime="0.00" waitingCount="0" stopTime="0.00" timeLoss="3.49" rerouteNo="0" devices="tripinfo_37" vType="DEFAULT_VEHTYPE" speedFactor="0.99" vaporized=""/>
    <tripinfo id="13" depart="5.00" departLane="10_3way_21to3way_15_0" departPos="5.10" departSpeed="0.00" departDelay="0.67" arrival="31.00" arrivalLane="4_3way_15to3way_10_0" arrivalPos="85.60" arrivalSpeed="13.09" duration="26.00" routeLength="283.70" waitingTime="0.00" waitingCount="0" stopTime="0.00" timeLoss="4.23" rerouteNo="0" devices="tripinfo_13" vType="DEFAULT_VEHTYPE" speedFactor="0.98" vaporized=""/>
    <tripinfo id="18" depart="6.00" departLane="10_3way_15to3way_21_0" departPos="5.10" departSpeed="0.00" departDelay="0.00" arrival="31.00" arrivalLane="16_3way_21to3way_22_0" arrivalPos="85.60" arrivalSpeed="12.23" duration="25.00" routeLength="277.30" waitingTime="0.00" waitingCount="0" stopTime="0.00" timeLoss="3.23" rerouteNo="0" devices="tripinfo_18" vType="DEFAULT_VEHTYPE" speedFactor="0.96" vaporized=""/>
    <tripinfo id="63" depart="21.00" departLane="23_4way_6to3way_5_0" departPos="5.10" departSpeed="0.00" departDelay="0.00" arrival="31.00" arrivalLane="23_4way_6to3way_5_0" arrivalPos="85.60" arrivalSpeed="12.08" duration="10.00" routeLength="80.50" waitingTime="0.00" waitingCount="0" stopTime="0.00" timeLoss="3.23" rerouteNo="0" devices="tripinfo_63" vType="DEFAULT_VEHTYPE" speedFactor="0.95" vaporized=""/>
    <tripinfo id="64" depart="22.00" departLane="27_4way_11to4way_6_0" departPos="5.10" departSpeed="0.00" departDelay="0.67" arrival="32.00" arrivalLane="27_4way_11to4way_6_0" arrivalPos="85.60" arrivalSpeed="12.64" duration="10.00" routeLength="80.50" waitingTime="0.00" waitingCount="0" stopTime="0.00" timeLoss="3.75" rerouteNo="0" devices="tripinfo_64" vType="DEFAULT_VEHTYPE" speedFactor="0.96" vaporized=""/>
    <tripinfo id="71" depart="24.00" departLane="24_4way_8to3way_9_0" departPos="5.10" departSpeed="0.00" departDelay="0.34" arrival="33.00" arrivalLane="24_4way_8to3way_9_0" arrivalPos="85.60" arrivalSpeed="15.63" duration="9.00" routeLength="80.50" waitingTime="0.00" waitingCount="0" stopTime="0.00" timeLoss="3.83" rerouteNo="0" devices="tripinfo_71" vType="DEFAULT_VEHTYPE" speedFactor="1.13" vaporized=""/>
    <tripinfo id="53" depart="18.00" departLane="16_3way_21to3way_22_0" departPos="5.10" departSpeed="0.00" departDelay="0.33" arrival="35.00" arrivalLane="19_3way_22to4way_17_0" arrivalPos="85.60" arrivalSpeed="17.32" duration="17.00" routeLength="175.13" waitingTime="0.00" waitingCount="0" stopTime="0.00" timeLoss="5.79" rerouteNo="0" devices="tripinfo_53" vType="DEFAULT_VEHTYPE" speedFactor="1.27" vaporized=""/>
    <tripinfo id="23" depart="10.00" departLane="22_3way_3to4way_8_0" departPos="5.10" departSpeed="0.00" departDelay="2.33" arrival="37.00" arrivalLane="31_4way_13to4way_18_0" arrivalPos="85.60" arrivalSpeed="12.05" duration="27.00" routeLength="280.50" waitingTime="0.00" waitingCount="0" stopTime="0.00" timeLoss="3.93" rerouteNo="0" devices="tripinfo_23" vType="DEFAULT_VEHTYPE" speedFactor="0.87" vaporized=""/>
    <tripinfo id="89" depart="30.00" departLane="23_4way_6to3way_5_0" departPos="5.10" departSpeed="0.00" departDelay="0.34" arrival="40.00" arrivalLane="23_4way_6to3way_5_0" arrivalPos="85.60" arrivalSpeed="12.49" duration="10.00" routeLength="80.50" waitingTime="0.00" waitingCount="0" stopTime="0.00" timeLoss="2.95" rerouteNo="0" devices="tripinfo_89" vType="DEFAULT_VEHTYPE" speedFactor="0.93" vaporized=""/>
    <tripinfo id="94" depart="32.00" departLane="7_3way_19to3way_14_0" departPos="5.10" departSpeed="0.00" departDelay="0.67" arrival="41.00" arrivalLane="7_3way_19to3way_14_0" arrivalPos="85.60" arrivalSpeed="14.40" duration="9.00" routeLength="80.50" waitingTime="0.00" waitingCount="0" stopTime="0.00" timeLoss="3.16" rerouteNo="0" devices="tripinfo_94" vType="DEFAULT_VEHTYPE" speedFactor="1.08" vaporized=""/>
    <tripinfo id="69" depart="23.00" departLane="32_4way_13to4way_8_0" departPos="5.10" departSpeed="0.00" departDelay="0.00" arrival="43.00" arrivalLane="22_4way_8to3way_3_0" arrivalPos="85.60" arrivalSpeed="10.20" duration="20.00" routeLength="180.50" waitingTime="0.00" waitingCount="0" stopTime="0.00" timeLoss="3.32" rerouteNo="0" devices="tripinfo_69" vType="DEFAULT_VEHTYPE" speedFactor="0.82" vaporized=""/>
    <tripinfo id="98" depart="33.00" departLane="1_3way_2to3way_1_0" departPos="5.10" departSpeed="0.00" departDelay="0.34" arrival="43.00" arrivalLane="1_3way_2to3way_1_0" arrivalPos="85.60" arrivalSpeed="11.56" duration="10.00" routeLength="80.50" waitingTime="0.00" waitingCount="0" stopTime="0.00" timeLoss="2.83" rerouteNo="0" devices="tripinfo_98" vType="DEFAULT_VEHTYPE" speedFactor="0.88" vaporized=""/>
    <tripinfo id="40" depart="14.00" departLane="1_3way_2to3way_1_0" departPos="5.10" departSpeed="0.00" departDelay="0.67" arrival="44.00" arrivalLane="5_3way_5to3way_10_0" arrivalPos="85.60" arrivalSpeed="14.27" duration="30.00" routeLength="377.30" waitingTime="0.00" waitingCount="0" stopTime="0.00" timeLoss="4.77" rerouteNo="0" devices="tripinfo_40" vType="DEFAULT_VEHTYPE" speedFactor="1.08" vaporized=""/>
    <tripinfo id="36" depart="13.00" departLane="22_3way_3to4way_8_0" departPos="5.10" departSpeed="0.00" departDelay="1.00" arrival="45.00" arrivalLane="20_4way_18to3way_23_0" arrivalPos="85.60" arrivalSpeed="15.38" duration="32.00" routeLength="380.50" waitingTime="0.00" waitingCount="0" stopTime="0.00" timeLoss="8.35" rerouteNo="0" devices="tripinfo_36" vType="DEFAULT_VEHTYPE" speedFactor="1.16" vaporized=""/>
    <tripinfo id="30" depart="13.00" departLane="14_3way_3to3way_2_0" departPos="5.10" departSpeed="0.00" departDelay="3.00" arrival="46.00" arrivalLane="29_4way_12to4way_17_0" arrivalPos="85.60" arrivalSpeed="13.91" duration="33.00" routeLength="375.13" waitingTime="0.00" waitingCount="0" stopTime="0.00" timeLoss="5.92" rerouteNo="0" devices="tripinfo_30" vType="DEFAULT_VEHTYPE" speedFactor="1.05" vaporized=""/>
    <tripinfo id="35" depart="12.00" departLane="21_3way_3to3way_9_0" departPos="5.10" departSpeed="0.00" departDelay="0.33" arrival="46.00" arrivalLane="7_3way_14to3way_19_0" arrivalPos="85.60" arrivalSpeed="12.60" duration="34.00" routeLength="383.70" waitingTime="0.00" waitingCount="0" stopTime="0.00" timeLoss="4.58" rerouteNo="0" devices="tripinfo_35" vType="DEFAULT_VEHTYPE" speedFactor="0.94" vaporized=""/>
    <tripinfo id="29" depart="13.00" departLane="18_3way_22to3way_23_0" departPos="5.10" departSpeed="0.00" departDelay="3.33" arrival="47.00" arrivalLane="7_3way_19to3way_14_0" arrivalPos="85.60" arrivalSpeed="12.84" duration="34.00" routeLength="377.30" waitingTime="0.00" waitingCount="0" stopTime="0.00" timeLoss="4.47" rerouteNo="0" devices="tripinfo_29" vType="DEFAULT_VEHTYPE" speedFactor="0.95" vaporized=""/>
    <tripinfo id="31" depart="16.00" departLane="14_3way_3to3way_2_0" departPos="5.10" departSpeed="0.00" departDelay="5.67" arrival="47.00" arrivalLane="29_4way_12to4way_17_0" arrivalPos="85.60" arrivalSpeed="15.15" duration="31.00" routeLength="375.13" waitingTime="0.00" waitingCount="0" stopTime="0.00" timeLoss="6.16" rerouteNo="0" devices="tripinfo_31" vType="DEFAULT_VEHTYPE" speedFactor="1.11" vaporized=""/>
    <tripinfo id="116" depart="39.00" departLane="22_3way_3to4way_8_0" departPos="5.10" departSpeed="0.00" departDelay="0.34" arrival="49.00" arrivalLane="22_3way_3to4way_8_0" arrivalPos="85.60" arrivalSpeed="12.98" duration="10.00" routeLength="80.50" waitingTime="0.00" waitingCount="0" stopTime="0.00" timeLoss="3.42" rerouteNo="0" devices="tripinfo_116" vType="DEFAULT_VEHTYPE" speedFactor="0.99" vaporized=""/>
    <tripinfo id="111" depart="40.00" departLane="7_3way_14to3way_19_0" departPos="5.10" departSpeed="0.00" departDelay="3.00" arrival="50.00" arrivalLane="7_3way_14to3way_19_0" arrivalPos="85.60" arrivalSpeed="11.02" duration="10.00" routeLength="80.50" waitingTime="0.00" waitingCount="0" stopTime="0.00" timeLoss="2.73" rerouteNo="0" devices="tripinfo_111" vType="DEFAULT_VEHTYPE" speedFactor="0.84" vaporized=""/>
    <tripinfo id="122" depart="41.00" departLane="30_4way_7to4way_12_0" departPos="5.10" departSpeed="0.00" departDelay="0.34" arrival="50.00" arrivalLane="30_4way_7to4way_12_0" arrivalPos="85.60" arrivalSpeed="16.64" duration="9.00" routeLength="80.50" waitingTime="0.00" waitingCount="0" stopTime="0.00" timeLoss="3.58" rerouteNo="0" devices="tripinfo_122" vType="DEFAULT_VEHTYPE" speedFactor="1.20" vaporized=""/>
    <tripinfo id="124" depart="42.00" departLane="23_4way_6to3way_5_0" departPos="5.10" departSpeed="0.00" departDelay="0.67" arrival="51.00" arrivalLane="23_4way_6to3way_5_0" arrivalPos="85.60" arrivalSpeed="14.95" duration="9.00" routeLength="80.50" waitingTime="0.00" waitingCount="0" stopTime="0.00" timeLoss="3.41" rerouteNo="0" devices="tripinfo_124" vType="DEFAULT_VEHTYPE" speedFactor="1.11" vaporized=""/>
    <tripinfo id="104" depart="35.00" departLane="16_3way_21to3way_22_0" departPos="5.10" departSpeed="0.00" departDelay="0.34" arrival="52.00" arrivalLane="18_3way_22to3way_23_0" arrivalPos="85.60" arrivalSpeed="12.09" duration="17.00" routeLength="180.50" waitingTime="0.00" waitingCount="0" stopTime="0.00" timeLoss="3.03" rerouteNo="0" devices="tripinfo_104" vType="DEFAULT_VEHTYPE" speedFactor="0.95" vaporized=""/>
    <tripinfo id="125" depart="42.00" departLane="20_3way_23to4way_18_0" departPos="5.10" departSpeed="0.00" departDelay="0.34" arrival="52.00" arrivalLane="20_3way_23to4way_18_0" arrivalPos="85.60" arrivalSpeed="12.51" duration="10.00" routeLength="80.50" waitingTime="0.00" waitingCount="0" stopTime="0.00" timeLoss="3.08" rerouteNo="0" devices="tripinfo_125" vType="DEFAULT_VEHTYPE" speedFactor="0.95" vaporized=""/>
    <tripinfo id="44" depart="15.00" departLane="8_3way_9to3way_14_0" departPos="5.10" departSpeed="0.00" departDelay="0.33" arrival="55.00" arrivalLane="12_3way_19to3way_23_0" arrivalPos="188.80" arrivalSpeed="10.74" duration="40.00" routeLength="383.70" waitingTime="0.00" waitingCount="0" stopTime="0.00" timeLoss="4.23" rerouteNo="0" devices="tripinfo_44" vType="DEFAULT_VEHTYPE" speedFactor="0.78" vaporized=""/>
    <tripinfo id="140" depart="47.00" departLane="6_4way_11to3way_10_0" departPos="5.10" departSpeed="0.00" departDelay="0.34" arrival="57.00" arrivalLane="6_4way_11to3way_10_0" arrivalPos="85.60" arrivalSpeed="12.39" duration="10.00" routeLength="80.50" waitingTime="0.00" waitingCount="0" stopTime="0.00" timeLoss="3.23" rerouteNo="0" devices="tripinfo_140" vType="DEFAULT_VEHTYPE" speedFactor="0.93" vaporized=""/>
    <tripinfo id="144" depart="48.00" departLane="22_4way_8to3way_3_0" departPos="5.10" departSpeed="0.00" departDelay="0.00" arrival="58.00" arrivalLane="22_4way_8to3way_3_0" arrivalPos="85.60" arrivalSpeed="14.71" duration="10.00" routeLength="80.50" waitingTime="0.00" waitingCount="0" stopTime="0.00" timeLoss="3.68" rerouteNo="0" devices="tripinfo_144" vType="DEFAULT_VEHTYPE" speedFactor="1.07" vaporized=""/>
    <tripinfo id="81" depart="29.00" departLane="1_3way_2to3way_1_0" departPos="5.10" departSpeed="0.00" departDelay="2.00" arrival="60.00" arrivalLane="5_3way_5to3way_10_0" arrivalPos="85.60" arrivalSpeed="14.32" duration="31.00" routeLength="377.30" waitingTime="0.00" waitingCount="0" stopTime="0.00" timeLoss="4.20" rerouteNo="0" devices="tripinfo_81" vType="DEFAULT_VEHTYPE" speedFactor="1.05" vaporized=""/>
    <tripinfo id="148" depart="50.00" departLane="14_3way_2to3way_3_0" departPos="5.10" departSpeed="0.00" departDelay="0.67" arrival="60.00" arrivalLane="14_3way_2to3way_3_0" arrivalPos="85.60" arrivalSpeed="14.74" duration="10.00" routeLength="80.50" waitingTime="0.00" waitingCount="0" stopTime="0.00" timeLoss="3.65" rerouteNo="0" devices="tripinfo_148" vType="DEFAULT_VEHTYPE" speedFactor="1.07" vaporized=""/>
    <tripinfo id="114" depart="38.00" departLane="10_3way_15to3way_21_0" departPos="5.10" departSpeed="0.00" departDelay="0.00" arrival="61.00" arrivalLane="16_3way_21to3way_22_0" arrivalPos="85.60" arrivalSpeed="14.08" duration="23.00" routeLength="277.30" waitingTime="0.00" waitingCount="0" stopTime="0.00" timeLoss="3.83" rerouteNo="0" devices="tripinfo_114" vType="DEFAULT_VEHTYPE" speedFactor="1.06" vaporized=""/>
    <tripinfo id="105" depart="35.00" departLane="29_4way_17to4way_12_0" departPos="5.10" departSpeed="0.00" departDelay="0.00" arrival="63.00" arrivalLane="35_4way_7to4way_6_0" arrivalPos="85.60" arrivalSpeed="12.97" duration="28.00" routeLength="275.13" waitingTime="0.00" waitingCount="0" stopTime="0.00" timeLoss="5.38" rerouteNo="0" devices="tripinfo_105" vType="DEFAULT_VEHTYPE" speedFactor="0.95" vaporized=""/>
    <tripinfo id="131" depart="44.00" departLane="32_4way_8to4way_13_0" departPos="5.10" departSpeed="0.00" departDelay="0.34" arrival="63.00" arrivalLane="31_4way_13to4way_18_0" arrivalPos="85.60" arrivalSpeed="10.32" duration="19.00" routeLength="180.50" waitingTime="0.00" waitingCount="0" stopTime="0.00" timeLoss="3.15" rerouteNo="0" devices="tripinfo_131" vType="DEFAULT_VEHTYPE" speedFactor="0.82" vaporized=""/>
    <tripinfo id="112" depart="40.00" departLane="2_3way_1to3way_5_0" departPos="5.10" departSpeed="0.00" departDelay="2.67" arrival="65.00" arrivalLane="5_3way_5to3way_10_0" arrivalPos="85.60" arrivalSpeed="12.17" duration="25.00" routeLength="277.30" waitingTime="0.00" waitingCount="0" stopTime="0.00" timeLoss="3.86" rerouteNo="0" devices="tripinfo_112" vType="DEFAULT_VEHTYPE" speedFactor="0.95" vaporized=""/>
    <tripinfo id="168" depart="57.00" departLane="4_3way_10to3way_15_0" departPos="5.10" departSpeed="0.00" departDelay="1.01" arrival="67.00" arrivalLane="4_3way_10to3way_15_0" arrivalPos="85.60" arrivalSpeed="14.70" duration="10.00" routeLength="80.50" waitingTime="0.00" waitingCount="0" stopTime="0.00" timeLoss="3.96" rerouteNo="0" devices="tripinfo_168" vType="DEFAULT_VEHTYPE" speedFactor="1.10" vaporized=""/>
    <tripinfo id="82" depart="28.00" departLane="1_3way_1to3way_2_0" departPos="5.10" departSpeed="0.00" departDelay="0.67" arrival="68.00" arrivalLane="8_3way_9to3way_14_0" arrivalPos="85.60" arrivalSpeed="13.33" duration="40.00" routeLength="483.70" waitingTime="0.00" waitingCount="0" stopTime="0.00" timeLoss="4.58" rerouteNo="0" devices="tripinfo_82" vType="DEFAULT_VEHTYPE" speedFactor="0.99" vaporized=""/>
    <tripinfo id="172" depart="58.00" departLane="24_4way_8to3way_9_0" departPos="5.10" departSpeed="0.00" departDelay="0.67" arrival="68.00" arrivalLane="24_4way_8to3way_9_0" arrivalPos="85.60" arrivalSpeed="11.96" duration="10.00" routeLength="80.50" waitingTime="0.00" waitingCount="0" stopTime="0.00" timeLoss="2.82" rerouteNo="0" devices="tripinfo_172" vType="DEFAULT_VEHTYPE" speedFactor="0.92" vaporized=""/>
    <tripinfo id="20" depart="7.00" departLane="22_3way_3to4way_8_0" departPos="5.10" departSpeed="0.00" departDelay="0.33" arrival="70.00" arrivalLane="9_4way_13to3way_14_0" arrivalPos="85.60" arrivalSpeed="5.81" duration="63.00" routeLength="275.13" waitingTime="31.00" waitingCount="1" stopTime="0.00" timeLoss="40.10" rerouteNo="0" devices="tripinfo_20" vType="DEFAULT_VEHTYPE" speedFactor="0.89" vaporized=""/>
    <tripinfo id="45" depart="15.00" departLane="3_3way_1to4way_6_0" departPos="5.10" departSpeed="0.00" departDelay="0.00" arrival="71.00" arrivalLane="3_3way_1to4way_6_0" arrivalPos="85.60" arrivalSpeed="5.49" duration="56.00" routeLength="80.50" waitingTime="41.00" waitingCount="1" stopTime="0.00" timeLoss="49.87" rerouteNo="0" devices="tripinfo_45" vType="DEFAULT_VEHTYPE" speedFactor="1.00" vaporized=""/>
    <tripinfo id="78" depart="28.00" departLane="34_4way_17to4way_18_0" departPos="5.10" departSpeed="0.00" departDelay="2.00" arrival="71.00" arrivalLane="34_4way_17to4way_18_0" arrivalPos="85.60" arrivalSpeed="6.25" duration="43.00" routeLength="80.50" waitingTime="27.00" waitingCount="1" stopTime="0.00" timeLoss="37.00" rerouteNo="0" devices="tripinfo_78" vType="DEFAULT_VEHTYPE" speedFactor="1.03" vaporized=""/>
    <tripinfo id="123" depart="41.00" departLane="15_3way_2to4way_7_0" departPos="5.10" departSpeed="0.00" departDelay="0.00" arrival="71.00" arrivalLane="36_4way_7to4way_8_0" arrivalPos="85.60" arrivalSpeed="6.85" duration="30.00" routeLength="175.13" waitingTime="7.00" waitingCount="1" stopTime="0.00" timeLoss="17.24" rerouteNo="0" devices="tripinfo_123" vType="DEFAULT_VEHTYPE" speedFactor="1.06" vaporized=""/>
    <tripinfo id="58" depart="20.00" departLane="27_4way_6to4way_11_0" departPos="5.10" departSpeed="0.00" departDelay="0.67" arrival="72.00" arrivalLane="17_4way_16to3way_21_0" arrivalPos="85.60" arrivalSpeed="7.10" duration="52.00" routeLength="280.50" waitingTime="21.00" waitingCount="1" stopTime="0.00" timeLoss="30.26" rerouteNo="0" devices="tripinfo_58" vType="DEFAULT_VEHTYPE" speedFactor="0.93" vaporized=""/>
    <tripinfo id="62" depart="33.00" departLane="20_3way_23to4way_18_0" departPos="5.10" departSpeed="0.00" departDelay="12.33" arrival="73.00" arrivalLane="22_4way_8to3way_3_0" arrivalPos="85.60" arrivalSpeed="7.42" duration="40.00" routeLength="380.50" waitingTime="1.00" waitingCount="1" stopTime="0.00" timeLoss="13.73" rerouteNo="0" devices="tripinfo_62" vType="DEFAULT_VEHTYPE" speedFactor="1.05" vaporized=""/>
    <tripinfo id="110" depart="37.00" departLane="30_4way_7to4way_12_0" departPos="5.10" departSpeed="0.00" departDelay="0.34" arrival="73.00" arrivalLane="28_4way_12to4way_13_0" arrivalPos="85.60" arrivalSpeed="7.18" duration="36.00" routeLength="175.13" waitingTime="12.00" waitingCount="1" stopTime="0.00" timeLoss="22.83" rerouteNo="0" devices="tripinfo_110" vType="DEFAULT_VEHTYPE" speedFactor="1.05" vaporized=""/>
    <tripinfo id="153" depart="54.00" departLane="36_4way_7to4way_8_0" departPos="5.10" departSpeed="0.00" departDelay="3.00" arrival="73.00" arrivalLane="36_4way_7to4way_8_0" arrivalPos="85.60" arrivalSpeed="8.36" duration="19.00" routeLength="80.50" waitingTime="4.00" waitingCount="1" stopTime="0.00" timeLoss="12.15" rerouteNo="0" devices="tripinfo_153" vType="DEFAULT_VEHTYPE" speedFactor="0.90" vaporized=""/>
    <tripinfo id="133" depart="46.00" departLane="9_4way_13to3way_14_0" departPos="5.10" departSpeed="0.00" departDelay="1.67" arrival="74.00" arrivalLane="9_4way_13to3way_14_0" arrivalPos="85.60" arrivalSpeed="8.50" duration="28.00" routeLength="80.50" waitingTime="12.00" waitingCount="1" stopTime="0.00" timeLoss="22.22" rerouteNo="0" devices="tripinfo_133" vType="DEFAULT_VEHTYPE" speedFactor="1.01" vaporized=""/>
    <tripinfo id="76" depart="29.00" departLane="11_3way_15to4way_16_0" departPos="5.10" departSpeed="0.00" departDelay="3.67" arrival="75.00" arrivalLane="11_3way_15to4way_16_0" arrivalPos="85.60" arrivalSpeed="7.69" duration="46.00" routeLength="80.50" waitingTime="29.00" waitingCount="1" stopTime="0.00" timeLoss="39.41" rerouteNo="0" devices="tripinfo_76" vType="DEFAULT_VEHTYPE" speedFactor="0.90" vaporized=""/>
    <tripinfo id="134" depart="50.00" departLane="28_4way_12to4way_13_0" departPos="5.10" departSpeed="0.00" departDelay="5.34" arrival="75.00" arrivalLane="28_4way_12to4way_13_0" arrivalPos="85.60" arrivalSpeed="9.47" duration="25.00" routeLength="80.50" waitingTime="10.00" waitingCount="1" stopTime="0.00" timeLoss="18.91" rerouteNo="0" devices="tripinfo_134" vType="DEFAULT_VEHTYPE" speedFactor="1.00" vaporized=""/>
    <tripinfo id="12" depart="4.00" departLane="9_4way_13to3way_14_0" departPos="5.10" departSpeed="0.00" departDelay="0.00" arrival="76.00" arrivalLane="8_3way_14to3way_9_0" arrivalPos="85.60" arrivalSpeed="15.69" duration="72.00" routeLength="175.13" waitingTime="51.00" waitingCount="1" stopTime="0.00" timeLoss="60.09" rerouteNo="0" devices="tripinfo_12" vType="DEFAULT_VEHTYPE" speedFactor="1.16" vaporized=""/>
    <tripinfo id="103" depart="35.00" departLane="15_4way_7to3way_2_0" departPos="5.10" departSpeed="0.00" departDelay="0.67" arrival="76.00" arrivalLane="1_3way_2to3way_1_0" arrivalPos="85.60" arrivalSpeed="15.19" duration="41.00" routeLength="175.13" waitingTime="21.00" waitingCount="1" stopTime="0.00" timeLoss="29.30" rerouteNo="0" devices="tripinfo_103" vType="DEFAULT_VEHTYPE" speedFactor="1.15" vaporized=""/>
    <tripinfo id="173" depart="58.00" departLane="4_3way_15to3way_10_0" departPos="5.10" departSpeed="0.00" departDelay="0.34" arrival="76.00" arrivalLane="5_3way_10to3way_5_0" arrivalPos="85.60" arrivalSpeed="11.17" duration="18.00" routeLength="180.50" waitingTime="0.00" waitingCount="0" stopTime="0.00" timeLoss="3.42" rerouteNo="0" devices="tripinfo_173" vType="DEFAULT_VEHTYPE" speedFactor="0.90" vaporized=""/>
    <tripinfo id="43" depart="15.00" departLane="36_4way_7to4way_8_0" departPos="5.10" departSpeed="0.00" departDelay="0.67" arrival="77.00" arrivalLane="22_4way_8to3way_3_0" arrivalPos="85.60" arrivalSpeed="12.31" duration="62.00" routeLength="175.13" waitingTime="41.00" waitingCount="1" stopTime="0.00" timeLoss="48.00" rerouteNo="0" devices="tripinfo_43" vType="DEFAULT_VEHTYPE" speedFactor="0.97" vaporized=""/>
    <tripinfo id="54" depart="18.00" departLane="35_4way_6to4way_7_0" departPos="5.10" departSpeed="0.00" departDelay="0.00" arrival="77.00" arrivalLane="36_4way_7to4way_8_0" arrivalPos="85.60" arrivalSpeed="14.02" duration="59.00" routeLength="180.50" waitingTime="38.00" waitingCount="1" stopTime="0.00" timeLoss="46.52" rerouteNo="0" devices="tripinfo_54" vType="DEFAULT_VEHTYPE" speedFactor="1.07" vaporized=""/>
    <tripinfo id="99" depart="33.00" departLane="11_3way_15to4way_16_0" departPos="5.10" departSpeed="0.00" departDelay="0.00" arrival="77.00" arrivalLane="11_3way_15to4way_16_0" arrivalPos="85.60" arrivalSpeed="9.97" duration="44.00" routeLength="80.50" waitingTime="27.00" waitingCount="1" stopTime="0.00" timeLoss="37.79" rerouteNo="0" devices="tripinfo_99" vType="DEFAULT_VEHTYPE" speedFactor="0.97" vaporized=""/>
    <tripinfo id="145" depart="53.00" departLane="28_4way_12to4way_13_0" departPos="5.10" departSpeed="0.00" departDelay="4.67" arrival="77.00" arrivalLane="28_4way_12to4way_13_0" arrivalPos="85.60" arrivalSpeed="9.99" duration="24.00" routeLength="80.50" waitingTime="7.00" waitingCount="1" stopTime="0.00" timeLoss="17.80" rerouteNo="0" devices="tripinfo_145" vType="DEFAULT_VEHTYPE" speedFactor="0.96" vaporized=""/>
    <tripinfo id="5" depart="2.00" departLane="5_3way_5to3way_10_0" departPos="5.10" departSpeed="0.00" departDelay="0.33" arrival="78.00" arrivalLane="25_4way_11to4way_12_0" arrivalPos="85.60" arrivalSpeed="12.09" duration="76.00" routeLength="275.13" waitingTime="43.00" waitingCount="1" stopTime="0.00" timeLoss="52.98" rerouteNo="0" devices="tripinfo_5" vType="DEFAULT_VEHTYPE" speedFactor="0.94" vaporized=""/>
    <tripinfo id="34" depart="12.00" departLane="3_3way_1to4way_6_0" departPos="5.10" departSpeed="0.00" departDelay="0.67" arrival="79.00" arrivalLane="35_4way_6to4way_7_0" arrivalPos="85.60" arrivalSpeed="13.02" duration="67.00" routeLength="175.13" waitingTime="42.00" waitingCount="1" stopTime="0.00" timeLoss="52.40" rerouteNo="0" devices="tripinfo_34" vType="DEFAULT_VEHTYPE" speedFactor="0.96" vaporized=""/>
    <tripinfo id="70" depart="24.00" departLane="34_4way_18to4way_17_0" departPos="5.10" departSpeed="0.00" departDelay="0.67" arrival="79.00" arrivalLane="33_4way_17to4way_16_0" arrivalPos="85.60" arrivalSpeed="9.34" duration="55.00" routeLength="180.50" waitingTime="29.00" waitingCount="1" stopTime="0.00" timeLoss="37.61" rerouteNo="0" devices="tripinfo_70" vType="DEFAULT_VEHTYPE" speedFactor="0.75" vaporized=""/>
    <tripinfo id="77" depart="29.00" departLane="36_4way_8to4way_7_0" departPos="5.10" departSpeed="0.00" departDelay="3.34" arrival="79.00" arrivalLane="36_4way_8to4way_7_0" arrivalPos="85.60" arrivalSpeed="8.19" duration="50.00" routeLength="80.50" waitingTime="33.00" waitingCount="1" stopTime="0.00" timeLoss="44.09" rerouteNo="0" devices="tripinfo_77" vType="DEFAULT_VEHTYPE" speedFactor="0.99" vaporized=""/>