<?xml version="1.0" encoding="UTF-8"?>

<!-- generated on 2023-07-27 00:26:51 by Eclipse SUMO sumo Version 1.12.0
<configuration xmlns:xsi="http://www.w3.org/2001/XMLSchema-instance" xsi:noNamespaceSchemaLocation="http://sumo.dlr.de/xsd/sumoConfiguration.xsd">

    <input>
        <net-file value="../../data_generation/sq.net.xml"/>
        <route-files value="../../data_generation/sq.rou.xml"/>
    </input>

    <output>
        <tripinfo-output value="tripinfo.xml"/>
        <statistic-output value="statistic.xml"/>
    </output>

    <time>
        <begin value="0"/>
        <end value="3600"/>
    </time>

    <processing>
        <time-to-teleport value="-1"/>
    </processing>

    <traci_server>
        <remote-port value="55719"/>
    </traci_server>

    <random_number>
        <seed value="1395"/>
    </random_number>

    <gui_only>
        <gui-settings-file value="../../data_generation/view_HY_0402.xml"/>
    </gui_only>

</configuration>
-->

<tripinfos xmlns:xsi="http://www.w3.org/2001/XMLSchema-instance" xsi:noNamespaceSchemaLocation="http://sumo.dlr.de/xsd/tripinfo_file.xsd">
    <tripinfo id="0" depart="0.00" departLane="39_4way_20to4way_14_0" departPos="5.10" departSpeed="0.00" departDelay="0.00" arrival="18.00" arrivalLane="35_4way_14to4way_13_0" arrivalPos="85.60" arrivalSpeed="13.68" duration="18.00" routeLength="175.13" waitingTime="0.00" waitingCount="0" stopTime="0.00" timeLoss="4.86" rerouteNo="0" devices="tripinfo_0" vType="DEFAULT_VEHTYPE" speedFactor="1.00" vaporized=""/>
    <tripinfo id="1" depart="4.00" departLane="36_4way_13to4way_19_0" departPos="5.10" departSpeed="0.00" departDelay="0.67" arrival="20.00" arrivalLane="46_4way_19to4way_25_0" arrivalPos="85.60" arrivalSpeed="14.43" duration="16.00" routeLength="180.50" waitingTime="0.00" waitingCount="0" stopTime="0.00" timeLoss="3.40" rerouteNo="0" devices="tripinfo_1" vType="DEFAULT_VEHTYPE" speedFactor="1.04" vaporized=""/>
    <tripinfo id="8" depart="27.00" departLane="50_4way_27to4way_21_0" departPos="5.10" departSpeed="0.00" departDelay="0.33" arrival="52.00" arrivalLane="43_4way_15to4way_9_0" arrivalPos="85.60" arrivalSpeed="12.49" duration="25.00" routeLength="280.50" waitingTime="0.00" waitingCount="0" stopTime="0.00" timeLoss="3.55" rerouteNo="0" devices="tripinfo_8" vType="DEFAULT_VEHTYPE" speedFactor="0.98" vaporized=""/>
    <tripinfo id="9" depart="30.00" departLane="42_4way_15to4way_21_0" departPos="5.10" departSpeed="0.00" departDelay="0.00" arrival="59.00" arrivalLane="54_4way_27to4way_28_0" arrivalPos="85.60" arrivalSpeed="12.11" duration="29.00" routeLength="275.13" waitingTime="0.00" waitingCount="0" stopTime="0.00" timeLoss="5.99" rerouteNo="0" devices="tripinfo_9" vType="DEFAULT_VEHTYPE" speedFactor="0.91" vaporized=""/>
    <tripinfo id="15" depart="50.00" departLane="36_4way_19to4way_13_0" departPos="5.10" departSpeed="0.00" departDelay="0.00" arrival="69.00" arrivalLane="9_4way_13to3way_12_0" arrivalPos="85.60" arrivalSpeed="13.60" duration="19.00" routeLength="175.13" waitingTime="0.00" waitingCount="0" stopTime="0.00" timeLoss="5.86" rerouteNo="0" devices="tripinfo_15" vType="DEFAULT_VEHTYPE" speedFactor="1.05" vaporized=""/>
    <tripinfo id="5" depart="17.00" departLane="37_4way_7to4way_13_0" departPos="5.10" departSpeed="0.00" departDelay="0.33" arrival="77.00" arrivalLane="38_4way_14to4way_15_0" arrivalPos="85.60" arrivalSpeed="12.76" duration="60.00" routeLength="275.13" waitingTime="26.00" waitingCount="1" stopTime="0.00" timeLoss="37.54" rerouteNo="0" devices="tripinfo_5" vType="DEFAULT_VEHTYPE" speedFactor="0.94" vaporized=""/>
    <tripinfo id="21" depart="70.00" departLane="24_3way_31to3way_32_0" departPos="5.10" departSpeed="0.00" departDelay="0.00" arrival="80.00" arrivalLane="24_3way_31to3way_32_0" arrivalPos="85.60" arrivalSpeed="10.83" duration="10.00" routeLength="80.50" waitingTime="0.00" waitingCount="0" stopTime="0.00" timeLoss="2.57" rerouteNo="0" devices="tripinfo_21" vType="DEFAULT_VEHTYPE" speedFactor="0.82" vaporized=""/>
    <tripinfo id="12" depart="40.00" departLane="17_4way_22to3way_23_0" departPos="5.10" departSpeed="0.00" departDelay="0.00" arrival="83.00" arrivalLane="4_3way_17to3way_11_0" arrivalPos="85.60" arrivalSpeed="15.31" duration="43.00" routeLength="275.13" waitingTime="14.00" waitingCount="1" stopTime="0.00" timeLoss="24.89" rerouteNo="0" devices="tripinfo_12" vType="DEFAULT_VEHTYPE" speedFactor="1.16" vaporized=""/>
    <tripinfo id="18" depart="60.00" departLane="12_3way_18to3way_24_0" departPos="5.10" departSpeed="0.00" departDelay="0.00" arrival="85.00" arrivalLane="18_3way_24to3way_31_0" arrivalPos="182.40" arrivalSpeed="13.01" duration="25.00" routeLength="277.30" waitingTime="0.00" waitingCount="0" stopTime="0.00" timeLoss="3.75" rerouteNo="0" devices="tripinfo_18" vType="DEFAULT_VEHTYPE" speedFactor="0.96" vaporized=""/>
    <tripinfo id="7" depart="24.00" departLane="42_4way_21to4way_15_0" departPos="5.10" departSpeed="0.00" departDelay="0.67" arrival="86.00" arrivalLane="1_3way_2to3way_1_0" arrivalPos="85.60" arrivalSpeed="12.72" duration="62.00" routeLength="475.13" waitingTime="14.00" waitingCount="1" stopTime="0.00" timeLoss="24.54" rerouteNo="0" devices="tripinfo_7" vType="DEFAULT_VEHTYPE" speedFactor="0.95" vaporized=""/>
    <tripinfo id="20" depart="67.00" departLane="4_3way_11to3way_17_0" departPos="5.10" departSpeed="0.00" departDelay="0.33" arrival="86.00" arrivalLane="10_3way_17to3way_23_0" arrivalPos="85.60" arrivalSpeed="12.21" duration="19.00" routeLength="180.50" waitingTime="0.00" waitingCount="0" stopTime="0.00" timeLoss="3.74" rerouteNo="0" devices="tripinfo_20" vType="DEFAULT_VEHTYPE" speedFactor="0.89" vaporized=""/>
    <tripinfo id="24" depart="80.00" departLane="10_3way_17to3way_23_0" departPos="5.10" departSpeed="0.00" departDelay="0.00" arrival="89.00" arrivalLane="10_3way_17to3way_23_0" arrivalPos="85.60" arrivalSpeed="13.43" duration="9.00" routeLength="80.50" waitingTime="0.00" waitingCount="0" stopTime="0.00" timeLoss="2.84" rerouteNo="0" devices="tripinfo_24" vType="DEFAULT_VEHTYPE" speedFactor="0.97" vaporized=""/>
    <tripinfo id="23" depart="77.00" departLane="31_3way_4to4way_10_0" departPos="5.10" departSpeed="0.00" departDelay="0.33" arrival="113.00" arrivalLane="51_4way_22to4way_28_0" arrivalPos="85.60" arrivalSpeed="10.92" duration="36.00" routeLength="380.50" waitingTime="0.00" waitingCount="0" stopTime="0.00" timeLoss="4.24" rerouteNo="0" devices="tripinfo_23" vType="DEFAULT_VEHTYPE" speedFactor="0.87" vaporized=""/>
    <tripinfo id="27" depart="90.00" departLane="5_3way_4to3way_11_0" departPos="5.10" departSpeed="0.00" departDelay="0.00" arrival="115.00" arrivalLane="4_3way_11to3way_17_0" arrivalPos="85.60" arrivalSpeed="13.35" duration="25.00" routeLength="283.70" waitingTime="0.00" waitingCount="0" stopTime="0.00" timeLoss="4.25" rerouteNo="0" devices="tripinfo_27" vType="DEFAULT_VEHTYPE" speedFactor="1.03" vaporized=""/>
    <tripinfo id="22" depart="74.00" departLane="7_3way_12to3way_18_0" departPos="5.10" departSpeed="0.00" departDelay="0.67" arrival="131.00" arrivalLane="13_3way_18to4way_19_0" arrivalPos="85.60" arrivalSpeed="6.01" duration="57.00" routeLength="175.13" waitingTime="34.00" waitingCount="1" stopTime="0.00" timeLoss="43.59" rerouteNo="0" devices="tripinfo_22" vType="DEFAULT_VEHTYPE" speedFactor="1.00" vaporized=""/>
    <tripinfo id="30" depart="100.00" departLane="31_3way_4to4way_10_0" departPos="5.10" departSpeed="0.00" departDelay="0.00" arrival="134.00" arrivalLane="49_4way_22to4way_21_0" arrivalPos="85.60" arrivalSpeed="14.13" duration="34.00" routeLength="380.30" waitingTime="0.00" waitingCount="0" stopTime="0.00" timeLoss="6.87" rerouteNo="0" devices="tripinfo_30" vType="DEFAULT_VEHTYPE" speedFactor="1.05" vaporized=""/>
    <tripinfo id="25" depart="84.00" departLane="30_3way_34to4way_28_0" departPos="5.10" departSpeed="0.00" departDelay="0.67" arrival="135.00" arrivalLane="56_4way_9to4way_8_0" arrivalPos="85.60" arrivalSpeed="12.56" duration="51.00" routeLength="575.13" waitingTime="0.00" waitingCount="0" stopTime="0.00" timeLoss="6.20" rerouteNo="0" devices="tripinfo_25" vType="DEFAULT_VEHTYPE" speedFactor="0.95" vaporized=""/>
    <tripinfo id="6" depart="20.00" departLane="41_4way_16to4way_15_0" departPos="5.10" departSpeed="0.00" departDelay="0.00" arrival="136.00" arrivalLane="36_4way_13to4way_19_0" arrivalPos="85.60" arrivalSpeed="14.13" duration="116.00" routeLength="375.13" waitingTime="74.00" waitingCount="2" stopTime="0.00" timeLoss="89.24" rerouteNo="0" devices="tripinfo_6" vType="DEFAULT_VEHTYPE" speedFactor="1.04" vaporized=""/>
    <tripinfo id="17" depart="57.00" departLane="39_4way_14to4way_20_0" departPos="5.10" departSpeed="0.00" departDelay="0.33" arrival="136.00" arrivalLane="49_4way_21to4way_22_0" arrivalPos="85.60" arrivalSpeed="13.34" duration="79.00" routeLength="275.13" waitingTime="48.00" waitingCount="1" stopTime="0.00" timeLoss="59.15" rerouteNo="0" devices="tripinfo_17" vType="DEFAULT_VEHTYPE" speedFactor="1.04" vaporized=""/>
    <tripinfo id="11" depart="37.00" departLane="56_4way_8to4way_9_0" departPos="5.10" departSpeed="0.00" departDelay="0.33" arrival="137.00" arrivalLane="31_4way_10to3way_4_0" arrivalPos="85.60" arrivalSpeed="13.00" duration="100.00" routeLength="275.13" waitingTime="65.00" waitingCount="2" stopTime="0.00" timeLoss="79.05" rerouteNo="0" devices="tripinfo_11" vType="DEFAULT_VEHTYPE" speedFactor="1.01" vaporized=""/>
    <tripinfo id="14" depart="47.00" departLane="43_4way_9to4way_15_0" departPos="5.10" departSpeed="0.00" departDelay="0.33" arrival="137.00" arrivalLane="28_3way_33to3way_34_0" arrivalPos="85.60" arrivalSpeed="12.15" duration="90.00" routeLength="475.13" waitingTime="43.00" waitingCount="1" stopTime="0.00" timeLoss="53.17" rerouteNo="0" devices="tripinfo_14" vType="DEFAULT_VEHTYPE" speedFactor="0.95" vaporized=""/>
    <tripinfo id="16" depart="54.00" departLane="46_4way_25to4way_19_0" departPos="5.10" departSpeed="0.00" departDelay="0.67" arrival="137.00" arrivalLane="3_4way_7to3way_1_0" arrivalPos="85.60" arrivalSpeed="11.25" duration="83.00" routeLength="380.50" waitingTime="43.00" waitingCount="1" stopTime="0.00" timeLoss="52.21" rerouteNo="0" devices="tripinfo_16" vType="DEFAULT_VEHTYPE" speedFactor="0.90" vaporized=""/>
    <tripinfo id="10" depart="34.00" departLane="56_4way_9to4way_8_0" departPos="5.10" departSpeed="0.00" departDelay="0.67" arrival="139.00" arrivalLane="8_3way_6to3way_12_0" arrivalPos="85.60" arrivalSpeed="14.10" duration="105.00" routeLength="375.13" waitingTime="61.00" waitingCount="2" stopTime="0.00" timeLoss="78.24" rerouteNo="0" devices="tripinfo_10" vType="DEFAULT_VEHTYPE" speedFactor="1.04" vaporized=""/>
    <tripinfo id="3" depart="10.00" departLane="34_4way_10to4way_9_0" departPos="5.10" departSpeed="0.00" departDelay="0.00" arrival="143.00" arrivalLane="8_3way_6to3way_12_0" arrivalPos="85.60" arrivalSpeed="11.78" duration="133.00" routeLength="475.13" waitingTime="78.00" waitingCount="2" stopTime="0.00" timeLoss="94.51" rerouteNo="0" devices="tripinfo_3" vType="DEFAULT_VEHTYPE" speedFactor="0.91" vaporized=""/>
    <tripinfo id="2" depart="7.00" departLane="55_4way_8to4way_7_0" departPos="5.10" departSpeed="0.00" departDelay="0.33" arrival="144.00" arrivalLane="7_3way_12to3way_18_0" arrivalPos="85.60" arrivalSpeed="13.36" duration="137.00" routeLength="375.13" waitingTime="95.00" waitingCount="2" stopTime="0.00" timeLoss="109.67" rerouteNo="0" devices="tripinfo_2" vType="DEFAULT_VEHTYPE" speedFactor="1.04" vaporized=""/>
    <tripinfo id="29" depart="97.00" departLane="24_3way_31to3way_32_0" departPos="5.10" departSpeed="0.00" departDelay="0.33" arrival="146.00" arrivalLane="16_3way_29to3way_23_0" arrivalPos="85.60" arrivalSpeed="11.91" duration="49.00" routeLength="577.30" waitingTime="0.00" waitingCount="0" stopTime="0.00" timeLoss="5.07" rerouteNo="0" devices="tripinfo_29" vType="DEFAULT_VEHTYPE" speedFactor="0.95" vaporized=""/>
    <tripinfo id="37" depart="124.00" departLane="12_3way_18to3way_24_0" departPos="5.10" departSpeed="0.00" departDelay="0.67" arrival="156.00" arrivalLane="24_3way_31to3way_32_0" arrivalPos="85.60" arrivalSpeed="13.10" duration="32.00" routeLength="377.30" waitingTime="0.00" waitingCount="0" stopTime="0.00" timeLoss="4.16" rerouteNo="0" devices="tripinfo_37" vType="DEFAULT_VEHTYPE" speedFactor="0.99" vaporized=""/>
    <tripinfo id="40" depart="134.00" departLane="22_3way_4to3way_3_0" departPos="5.10" departSpeed="0.00" departDelay="0.67" arrival="166.00" arrivalLane="3_3way_1to4way_7_0" arrivalPos="85.60" arrivalSpeed="14.60" duration="32.00" routeLength="375.13" waitingTime="0.00" waitingCount="0" stopTime="0.00" timeLoss="6.19" rerouteNo="0" devices="tripinfo_40" vType="DEFAULT_VEHTYPE" speedFactor="1.08" vaporized=""/>
    <tripinfo id="41" depart="137.00" departLane="41_4way_16to4way_15_0" departPos="5.10" departSpeed="0.00" departDelay="0.33" arrival="169.00" arrivalLane="36_4way_13to4way_19_0" arrivalPos="85.60" arrivalSpeed="14.95" duration="32.00" routeLength="375.13" waitingTime="0.00" waitingCount="0" stopTime="0.00" timeLoss="6.77" rerouteNo="0" devices="tripinfo_41" vType="DEFAULT_VEHTYPE" speedFactor="1.12" vaporized=""/>
    <tripinfo id="42" depart="140.00" departLane="39_4way_14to4way_20_0" departPos="5.10" departSpeed="0.00" departDelay="0.00" arrival="196.00" arrivalLane="27_4way_26to3way_32_0" arrivalPos="85.60" arrivalSpeed="12.51" duration="56.00" routeLength="280.50" waitingTime="26.00" waitingCount="1" stopTime="0.00" timeLoss="35.68" rerouteNo="0" devices="tripinfo_42" vType="DEFAULT_VEHTYPE" speedFactor="0.99" vaporized=""/>
    <tripinfo id="13" depart="44.00" departLane="13_3way_18to4way_19_0" departPos="5.10" departSpeed="0.00" departDelay="0.67" arrival="197.00" arrivalLane="37_4way_13to4way_7_0" arrivalPos="85.60" arrivalSpeed="12.66" duration="153.00" routeLength="275.13" waitingTime="117.00" waitingCount="2" stopTime="0.00" timeLoss="131.40" rerouteNo="0" devices="tripinfo_13" vType="DEFAULT_VEHTYPE" speedFactor="0.98" vaporized=""/>
    <tripinfo id="28" depart="94.00" departLane="6_3way_11to4way_10_0" departPos="5.10" departSpeed="0.00" departDelay="0.67" arrival="197.00" arrivalLane="40_4way_8to4way_14_0" arrivalPos="85.60" arrivalSpeed="14.03" duration="103.00" routeLength="375.13" waitingTime="60.00" waitingCount="2" stopTime="0.00" timeLoss="75.46" rerouteNo="0" devices="tripinfo_28" vType="DEFAULT_VEHTYPE" speedFactor="1.03" vaporized=""/>
    <tripinfo id="45" depart="150.00" departLane="3_3way_1to4way_7_0" departPos="5.10" departSpeed="0.00" departDelay="0.00" arrival="197.00" arrivalLane="36_4way_13to4way_19_0" arrivalPos="85.60" arrivalSpeed="13.57" duration="47.00" routeLength="280.50" waitingTime="17.00" waitingCount="1" stopTime="0.00" timeLoss="26.73" rerouteNo="0" devices="tripinfo_45" vType="DEFAULT_VEHTYPE" speedFactor="1.00" vaporized=""/>
    <tripinfo id="50" depart="167.00" departLane="51_4way_22to4way_28_0" departPos="5.10" departSpeed="0.00" departDelay="0.33" arrival="197.00" arrivalLane="21_4way_28to3way_29_0" arrivalPos="85.60" arrivalSpeed="13.30" duration="30.00" routeLength="175.13" waitingTime="8.00" waitingCount="1" stopTime="0.00" timeLoss="16.63" rerouteNo="0" devices="tripinfo_50" vType="DEFAULT_VEHTYPE" speedFactor="1.01" vaporized=""/>
    <tripinfo id="19" depart="64.00" departLane="15_3way_2to4way_8_0" departPos="5.10" departSpeed="0.00" departDelay="0.67" arrival="198.00" arrivalLane="39_4way_14to4way_20_0" arrivalPos="85.60" arrivalSpeed="11.07" duration="134.00" routeLength="280.50" waitingTime="96.00" waitingCount="2" stopTime="0.00" timeLoss="111.00" rerouteNo="0" devices="tripinfo_19" vType="DEFAULT_VEHTYPE" speedFactor="0.89" vaporized=""/>
    <tripinfo id="48" depart="160.00" departLane="49_4way_22to4way_21_0" departPos="5.10" departSpeed="0.00" departDelay="0.00" arrival="199.00" arrivalLane="48_4way_20to4way_26_0" arrivalPos="85.60" arrivalSpeed="10.94" duration="39.00" routeLength="275.13" waitingTime="5.00" waitingCount="1" stopTime="0.00" timeLoss="13.76" rerouteNo="0" devices="tripinfo_48" vType="DEFAULT_VEHTYPE" speedFactor="0.83" vaporized=""/>
    <tripinfo id="43" depart="144.00" departLane="47_4way_20to4way_21_0" departPos="5.10" departSpeed="0.00" departDelay="0.67" arrival="214.00" arrivalLane="4_3way_17to3way_11_0" arrivalPos="85.60" arrivalSpeed="12.49" duration="70.00" routeLength="475.13" waitingTime="23.00" waitingCount="1" stopTime="0.00" timeLoss="34.27" rerouteNo="0" devices="tripinfo_43" vType="DEFAULT_VEHTYPE" speedFactor="0.97" vaporized=""/>
    <tripinfo id="61" depart="204.00" departLane="12_3way_18to3way_24_0" departPos="5.10" departSpeed="0.00" departDelay="0.67" arrival="223.00" arrivalLane="19_3way_24to4way_25_0" arrivalPos="85.60" arrivalSpeed="13.85" duration="19.00" routeLength="175.13" waitingTime="0.00" waitingCount="0" stopTime="0.00" timeLoss="5.10" rerouteNo="0" devices="tripinfo_61" vType="DEFAULT_VEHTYPE" speedFactor="1.01" vaporized=""/>
    <tripinfo id="64" depart="214.00" departLane="13_3way_18to4way_19_0" departPos="5.10" departSpeed="0.00" departDelay="0.67" arrival="250.00" arrivalLane="40_4way_14to4way_8_0" arrivalPos="85.60" arrivalSpeed="12.29" duration="36.00" routeLength="375.13" waitingTime="0.00" waitingCount="0" stopTime="0.00" timeLoss="6.28" rerouteNo="0" devices="tripinfo_64" vType="DEFAULT_VEHTYPE" speedFactor="0.96" vaporized=""/>
    <tripinfo id="33" depart="110.00" departLane="52_4way_25to4way_26_0" departPos="5.10" departSpeed="0.00" departDelay="0.00" arrival="251.00" arrivalLane="54_4way_27to4way_28_0" arrivalPos="85.60" arrivalSpeed="6.06" duration="141.00" routeLength="280.50" waitingTime="98.00" waitingCount="3" stopTime="0.00" timeLoss="121.55" rerouteNo="0" devices="tripinfo_33" vType="DEFAULT_VEHTYPE" speedFactor="1.06" vaporized=""/>
    <tripinfo id="32" depart="107.00" departLane="7_3way_12to3way_18_0" departPos="5.10" departSpeed="0.00" departDelay="0.33" arrival="253.00" arrivalLane="54_4way_27to4way_28_0" arrivalPos="85.60" arrivalSpeed="6.73" duration="146.00" routeLength="575.13" waitingTime="84.00" waitingCount="2" stopTime="0.00" timeLoss="104.00" rerouteNo="0" devices="tripinfo_32" vType="DEFAULT_VEHTYPE" speedFactor="1.00" vaporized=""/>
    <tripinfo id="53" depart="177.00" departLane="12_3way_24to3way_18_0" departPos="5.10" departSpeed="0.00" departDelay="0.33" arrival="253.00" arrivalLane="47_4way_20to4way_21_0" arrivalPos="85.60" arrivalSpeed="8.93" duration="76.00" routeLength="380.30" waitingTime="42.00" waitingCount="1" stopTime="0.00" timeLoss="53.25" rerouteNo="0" devices="tripinfo_53" vType="DEFAULT_VEHTYPE" speedFactor="1.27" vaporized=""/>
    <tripinfo id="31" depart="104.00" departLane="22_3way_4to3way_3_0" departPos="5.10" departSpeed="0.00" departDelay="0.67" arrival="256.00" arrivalLane="42_4way_15to4way_21_0" arrivalPos="85.60" arrivalSpeed="14.67" duration="152.00" routeLength="375.13" waitingTime="105.00" waitingCount="3" stopTime="0.00" timeLoss="127.29" rerouteNo="0" devices="tripinfo_31" vType="DEFAULT_VEHTYPE" speedFactor="1.11" vaporized=""/>
    <tripinfo id="39" depart="130.00" departLane="28_3way_34to3way_33_0" departPos="5.10" departSpeed="0.00" departDelay="0.00" arrival="256.00" arrivalLane="45_4way_20to4way_19_0" arrivalPos="85.60" arrivalSpeed="14.07" duration="126.00" routeLength="474.93" waitingTime="75.00" waitingCount="2" stopTime="0.00" timeLoss="92.33" rerouteNo="0" devices="tripinfo_39" vType="DEFAULT_VEHTYPE" speedFactor="1.05" vaporized=""/>
    <tripinfo id="4" depart="14.00" departLane="19_3way_24to4way_25_0" departPos="5.10" departSpeed="0.00" departDelay="0.67" arrival="257.00" arrivalLane="51_4way_28to4way_22_0" arrivalPos="85.60" arrivalSpeed="14.13" duration="243.00" routeLength="475.13" waitingTime="183.00" waitingCount="4" stopTime="0.00" timeLoss="208.83" rerouteNo="0" devices="tripinfo_4" vType="DEFAULT_VEHTYPE" speedFactor="1.02" vaporized=""/>
    <tripinfo id="34" depart="114.00" departLane="15_3way_2to4way_8_0" departPos="5.10" departSpeed="0.00" departDelay="0.67" arrival="257.00" arrivalLane="48_4way_20to4way_26_0" arrivalPos="85.60" arrivalSpeed="12.34" duration="143.00" routeLength="380.50" waitingTime="89.00" waitingCount="3" stopTime="0.00" timeLoss="114.30" rerouteNo="0" devices="tripinfo_34" vType="DEFAULT_VEHTYPE" speedFactor="0.96" vaporized=""/>
    <tripinfo id="58" depart="194.00" departLane="19_4way_25to3way_24_0" departPos="5.10" departSpeed="0.00" departDelay="0.67" arrival="257.00" arrivalLane="12_3way_24to3way_18_0" arrivalPos="85.60" arrivalSpeed="12.33" duration="63.00" routeLength="180.29" waitingTime="41.00" waitingCount="1" stopTime="0.00" timeLoss="48.39" rerouteNo="0" devices="tripinfo_58" vType="DEFAULT_VEHTYPE" speedFactor="0.93" vaporized=""/>
    <tripinfo id="68" depart="227.00" departLane="33_4way_16to4way_10_0" departPos="5.10" departSpeed="0.00" departDelay="0.34" arrival="257.00" arrivalLane="31_4way_10to3way_4_0" arrivalPos="85.60" arrivalSpeed="14.43" duration="30.00" routeLength="180.50" waitingTime="8.00" waitingCount="1" stopTime="0.00" timeLoss="17.55" rerouteNo="0" devices="tripinfo_68" vType="DEFAULT_VEHTYPE" speedFactor="1.09" vaporized=""/>
    <tripinfo id="44" depart="147.00" departLane="11_3way_17to4way_16_0" departPos="5.10" departSpeed="0.00" departDelay="0.33" arrival="259.00" arrivalLane="29_4way_27to3way_33_0" arrivalPos="85.60" arrivalSpeed="9.82" duration="112.00" routeLength="475.13" waitingTime="51.00" waitingCount="2" stopTime="0.00" timeLoss="66.84" rerouteNo="0" devices="tripinfo_44" vType="DEFAULT_VEHTYPE" speedFactor="0.78" vaporized=""/>
    <tripinfo id="62" depart="207.00" departLane="28_3way_33to3way_34_0" departPos="5.10" departSpeed="0.00" departDelay="0.33" arrival="264.00" arrivalLane="4_3way_17to3way_11_0" arrivalPos="85.60" arrivalSpeed="13.68" duration="57.00" routeLength="577.30" waitingTime="6.00" waitingCount="1" stopTime="0.00" timeLoss="16.88" rerouteNo="0" devices="tripinfo_62" vType="DEFAULT_VEHTYPE" speedFactor="1.05" vaporized=""/>
    <tripinfo id="76" depart="254.00" departLane="53_4way_27to4way_26_0" departPos="5.10" departSpeed="0.00" departDelay="0.67" arrival="264.00" arrivalLane="53_4way_27to4way_26_0" arrivalPos="85.60" arrivalSpeed="12.30" duration="10.00" routeLength="80.50" waitingTime="0.00" waitingCount="0" stopTime="0.00" timeLoss="2.73" rerouteNo="0" devices="tripinfo_76" vType="DEFAULT_VEHTYPE" speedFactor="0.90" vaporized=""/>
    <tripinfo id="63" depart="210.00" departLane="55_4way_8to4way_7_0" departPos="5.10" departSpeed="0.00" departDelay="0.00" arrival="265.00" arrivalLane="36_4way_13to4way_19_0" arrivalPos="85.60" arrivalSpeed="12.56" duration="55.00" routeLength="275.13" waitingTime="25.00" waitingCount="1" stopTime="0.00" timeLoss="32.72" rerouteNo="0" devices="tripinfo_63" vType="DEFAULT_VEHTYPE" speedFactor="0.95" vaporized=""/>
    <tripinfo id="67" depart="224.00" departLane="47_4way_20to4way_21_0" departPos="5.10" departSpeed="0.00" departDelay="0.67" arrival="265.00" arrivalLane="42_4way_21to4way_15_0" arrivalPos="85.60" arrivalSpeed="11.91" duration="41.00" routeLength="175.13" waitingTime="15.00" waitingCount="1" stopTime="0.00" timeLoss="25.86" rerouteNo="0" devices="tripinfo_67" vType="DEFAULT_VEHTYPE" speedFactor="0.88" vaporized=""/>
    <tripinfo id="77" depart="257.00" departLane="54_4way_27to4way_28_0" departPos="5.10" departSpeed="0.00" departDelay="0.34" arrival="267.00" arrivalLane="54_4way_27to4way_28_0" arrivalPos="85.60" arrivalSpeed="13.13" duration="10.00" routeLength="80.50" waitingTime="0.00" waitingCount="0" stopTime="0.00" timeLoss="3.53" rerouteNo="0" devices="tripinfo_77" vType="DEFAULT_VEHTYPE" speedFactor="0.99" vaporized=""/>
    <tripinfo id="56" depart="187.00" departLane="37_4way_7to4way_13_0" departPos="5.10" departSpeed="0.00" departDelay="0.33" arrival="269.00" arrivalLane="52_4way_25to4way_26_0" arrivalPos="85.60" arrivalSpeed="13.29" duration="82.00" routeLength="375.13" waitingTime="40.00" waitingCount="1" stopTime="0.00" timeLoss="53.51" rerouteNo="0" devices="tripinfo_56" vType="DEFAULT_VEHTYPE" speedFactor="1.02" vaporized=""/>
    <tripinfo id="69" depart="230.00" departLane="51_4way_28to4way_22_0" departPos="5.10" departSpeed="0.00" departDelay="0.00" arrival="270.00" arrivalLane="47_4way_21to4way_20_0" arrivalPos="85.60" arrivalSpeed="11.30" duration="40.00" routeLength="275.13" waitingTime="6.00" waitingCount="1" stopTime="0.00" timeLoss="14.18" rerouteNo="0" devices="tripinfo_69" vType="DEFAULT_VEHTYPE" speedFactor="0.82" vaporized=""/>
    <tripinfo id="80" depart="267.00" departLane="1_3way_2to3way_1_0" departPos="5.10" departSpeed="0.00" departDelay="0.34" arrival="289.00" arrivalLane="3_3way_1to4way_7_0" arrivalPos="85.60" arrivalSpeed="10.22" duration="22.00" routeLength="175.13" waitingTime="0.00" waitingCount="0" stopTime="0.00" timeLoss="4.32" rerouteNo="0" devices="tripinfo_80" vType="DEFAULT_VEHTYPE" speedFactor="0.78" vaporized=""/>
    <tripinfo id="84" depart="280.00" departLane="15_3way_2to4way_8_0" departPos="5.10" departSpeed="0.00" departDelay="0.00" arrival="303.00" arrivalLane="39_4way_14to4way_20_0" arrivalPos="85.60" arrivalSpeed="14.05" duration="23.00" routeLength="280.50" waitingTime="0.00" waitingCount="0" stopTime="0.00" timeLoss="3.92" rerouteNo="0" devices="tripinfo_84" vType="DEFAULT_VEHTYPE" speedFactor="1.06" vaporized=""/>
    <tripinfo id="88" depart="294.00" departLane="36_4way_19to4way_13_0" departPos="5.10" departSpeed="0.00" departDelay="0.67" arrival="304.00" arrivalLane="36_4way_19to4way_13_0" arrivalPos="85.60" arrivalSpeed="14.25" duration="10.00" routeLength="80.50" waitingTime="0.00" waitingCount="0" stopTime="0.00" timeLoss="3.79" rerouteNo="0" devices="tripinfo_88" vType="DEFAULT_VEHTYPE" speedFactor="1.06" vaporized=""/>
    <tripinfo id="57" depart="191.00" departLane="40_4way_8to4way_14_0" departPos="5.10" departSpeed="0.00" departDelay="1.00" arrival="313.00" arrivalLane="49_4way_21to4way_22_0" arrivalPos="85.60" arrivalSpeed="8.95" duration="122.00" routeLength="375.13" waitingTime="75.00" waitingCount="2" stopTime="0.00" timeLoss="92.99" rerouteNo="0" devices="tripinfo_57" vType="DEFAULT_VEHTYPE" speedFactor="0.97" vaporized=""/>
    <tripinfo id="82" depart="274.00" departLane="16_3way_29to3way_23_0" departPos="5.10" departSpeed="0.00" departDelay="0.67" arrival="313.00" arrivalLane="41_4way_16to4way_15_0" arrivalPos="85.60" arrivalSpeed="8.00" duration="39.00" routeLength="375.13" waitingTime="0.00" waitingCount="0" stopTime="0.00" timeLoss="10.82" rerouteNo="0" devices="tripinfo_82" vType="DEFAULT_VEHTYPE" speedFactor="0.99" vaporized=""/>
    <tripinfo id="75" depart="250.00" departLane="7_3way_12to3way_18_0" departPos="5.10" departSpeed="0.00" departDelay="0.00" arrival="316.00" arrivalLane="45_4way_19to4way_20_0" arrivalPos="85.60" arrivalSpeed="14.11" duration="66.00" routeLength="275.13" waitingTime="36.00" waitingCount="1" stopTime="0.00" timeLoss="47.25" rerouteNo="0" devices="tripinfo_75" vType="DEFAULT_VEHTYPE" speedFactor="1.09" vaporized=""/>
    <tripinfo id="52" depart="174.00" departLane="29_3way_33to4way_27_0" departPos="5.10" departSpeed="0.00" departDelay="0.67" arrival="317.00" arrivalLane="47_4way_21to4way_20_0" arrivalPos="85.60" arrivalSpeed="13.72" duration="143.00" routeLength="275.13" waitingTime="107.00" waitingCount="2" stopTime="0.00" timeLoss="122.42" rerouteNo="0" devices="tripinfo_52" vType="DEFAULT_VEHTYPE" speedFactor="1.03" vaporized=""/>
    <tripinfo id="78" depart="260.00" departLane="25_3way_31to4way_25_0" departPos="5.10" departSpeed="0.00" departDelay="0.00" arrival="317.00" arrivalLane="3_4way_7to3way_1_0" arrivalPos="85.60" arrivalSpeed="13.23" duration="57.00" routeLength="480.50" waitingTime="12.00" waitingCount="1" stopTime="0.00" timeLoss="22.57" rerouteNo="0" devices="tripinfo_78" vType="DEFAULT_VEHTYPE" speedFactor="1.03" vaporized=""/>
    <tripinfo id="38" depart="127.00" departLane="39_4way_20to4way_14_0" departPos="5.10" departSpeed="0.00" departDelay="0.33" arrival="318.00" arrivalLane="14_3way_2to3way_3_0" arrivalPos="85.60" arrivalSpeed="13.84" duration="191.00" routeLength="380.29" waitingTime="143.00" waitingCount="3" stopTime="0.00" timeLoss="162.14" rerouteNo="0" devices="tripinfo_38" vType="DEFAULT_VEHTYPE" speedFactor="1.00" vaporized=""/>
    <tripinfo id="81" depart="270.00" departLane="1_3way_1to3way_2_0" departPos="5.10" departSpeed="0.00" departDelay="0.00" arrival="323.00" arrivalLane="10_3way_17to3way_23_0" arrivalPos="85.60" arrivalSpeed="14.31" duration="53.00" routeLength="683.70" waitingTime="0.00" waitingCount="0" stopTime="0.00" timeLoss="5.12" rerouteNo="0" devices="tripinfo_81" vType="DEFAULT_VEHTYPE" speedFactor="1.05" vaporized=""/>
    <tripinfo id="55" depart="184.00" departLane="47_4way_20to4way_21_0" departPos="5.10" departSpeed="0.00" departDelay="0.67" arrival="325.00" arrivalLane="33_4way_16to4way_10_0" arrivalPos="85.60" arrivalSpeed="13.00" duration="141.00" routeLength="375.13" waitingTime="96.00" waitingCount="2" stopTime="0.00" timeLoss="111.12" rerouteNo="0" devices="tripinfo_55" vType="DEFAULT_VEHTYPE" speedFactor="0.94" vaporized=""/>
    <tripinfo id="72" depart="240.00" departLane="54_4way_27to4way_28_0" departPos="5.10" departSpeed="0.00" departDelay="0.00" arrival="325.00" arrivalLane="31_4way_10to3way_4_0" arrivalPos="85.60" arrivalSpeed="14.81" duration="85.00" routeLength="475.13" waitingTime="33.00" waitingCount="2" stopTime="0.00" timeLoss="54.20" rerouteNo="0" devices="tripinfo_72" vType="DEFAULT_VEHTYPE" speedFactor="1.15" vaporized=""/>