<?xml version="1.0" encoding="UTF-8"?>

<!-- generated on 2023-11-28 15:24:13 by Eclipse SUMO sumo Version 1.12.0
<configuration xmlns:xsi="http://www.w3.org/2001/XMLSchema-instance" xsi:noNamespaceSchemaLocation="http://sumo.dlr.de/xsd/sumoConfiguration.xsd">

    <input>
        <net-file value="../../data_generation/sapporo_HY.net.xml"/>
        <route-files value="../../data_generation/sapporo_HY.rou.xml"/>
    </input>

    <output>
        <tripinfo-output value="tripinfo.xml"/>
        <statistic-output value="statistic.xml"/>
    </output>

    <time>
        <begin value="0"/>
        <end value="3600"/>
    </time>

    <processing>
        <time-to-teleport value="-1"/>
    </processing>

    <traci_server>
        <remote-port value="57137"/>
    </traci_server>

    <random_number>
        <seed value="1"/>
    </random_number>

    <gui_only>
        <gui-settings-file value="../../data_generation/view_HY_0402.xml"/>
    </gui_only>

</configuration>
-->

<tripinfos xmlns:xsi="http://www.w3.org/2001/XMLSchema-instance" xsi:noNamespaceSchemaLocation="http://sumo.dlr.de/xsd/tripinfo_file.xsd">
    <tripinfo id="7" depart="4.00" departLane="12_3way_B10to3way_A09_0" departPos="5.10" departSpeed="0.00" departDelay="0.85" arrival="22.00" arrivalLane="12_3way_B10to3way_A09_0" arrivalPos="182.40" arrivalSpeed="12.78" duration="18.00" routeLength="177.30" waitingTime="0.00" waitingCount="0" stopTime="0.00" timeLoss="3.34" rerouteNo="0" devices="tripinfo_7" vType="DEFAULT_VEHTYPE" speedFactor="0.92" vaporized=""/>
    <tripinfo id="15" depart="7.00" departLane="107_4way_F02to4way_G02_0" departPos="5.10" departSpeed="0.00" departDelay="0.25" arrival="25.00" arrivalLane="55_4way_G02to3way_H02_0" arrivalPos="85.60" arrivalSpeed="12.16" duration="18.00" routeLength="180.50" waitingTime="0.00" waitingCount="0" stopTime="0.00" timeLoss="3.90" rerouteNo="0" devices="tripinfo_15" vType="DEFAULT_VEHTYPE" speedFactor="0.93" vaporized=""/>
    <tripinfo id="18" depart="9.00" departLane="96_4way_E05to4way_F05_0" departPos="5.10" departSpeed="0.00" departDelay="0.90" arrival="25.00" arrivalLane="113_4way_F05to4way_G05_0" arrivalPos="85.60" arrivalSpeed="15.44" duration="16.00" routeLength="180.50" waitingTime="0.00" waitingCount="0" stopTime="0.00" timeLoss="4.48" rerouteNo="0" devices="tripinfo_18" vType="DEFAULT_VEHTYPE" speedFactor="1.19" vaporized=""/>
    <tripinfo id="19" depart="9.00" departLane="20_3way_C03to3way_C04_0" departPos="5.10" departSpeed="0.00" departDelay="0.45" arrival="27.00" arrivalLane="22_3way_C04to4way_B04_0" arrivalPos="85.60" arrivalSpeed="14.97" duration="18.00" routeLength="175.13" waitingTime="0.00" waitingCount="0" stopTime="0.00" timeLoss="5.77" rerouteNo="0" devices="tripinfo_19" vType="DEFAULT_VEHTYPE" speedFactor="1.08" vaporized=""/>
    <tripinfo id="5" depart="3.00" departLane="81_4way_D03to4way_E03_0" departPos="5.10" departSpeed="0.00" departDelay="0.75" arrival="30.00" arrivalLane="108_4way_F03to4way_F04_0" arrivalPos="85.60" arrivalSpeed="12.76" duration="27.00" routeLength="275.13" waitingTime="0.00" waitingCount="0" stopTime="0.00" timeLoss="5.72" rerouteNo="0" devices="tripinfo_5" vType="DEFAULT_VEHTYPE" speedFactor="0.98" vaporized=""/>
    <tripinfo id="51" depart="24.00" departLane="83_4way_D06to4way_D07_0" departPos="5.10" departSpeed="0.00" departDelay="1.05" arrival="33.00" arrivalLane="83_4way_D06to4way_D07_0" arrivalPos="85.60" arrivalSpeed="14.54" duration="9.00" routeLength="80.50" waitingTime="0.00" waitingCount="0" stopTime="0.00" timeLoss="2.94" rerouteNo="0" devices="tripinfo_51" vType="DEFAULT_VEHTYPE" speedFactor="1.09" vaporized=""/>
    <tripinfo id="26" depart="12.00" departLane="57_3way_H03to4way_G03_0" departPos="5.10" departSpeed="0.00" departDelay="0.30" arrival="35.00" arrivalLane="92_4way_F03to4way_E03_0" arrivalPos="85.60" arrivalSpeed="14.44" duration="23.00" routeLength="280.50" waitingTime="0.00" waitingCount="0" stopTime="0.00" timeLoss="3.45" rerouteNo="0" devices="tripinfo_26" vType="DEFAULT_VEHTYPE" speedFactor="1.07" vaporized=""/>
    <tripinfo id="73" depart="33.00" departLane="47_4way_F09to3way_F10_0" departPos="5.10" departSpeed="0.00" departDelay="0.15" arrival="43.00" arrivalLane="47_4way_F09to3way_F10_0" arrivalPos="85.60" arrivalSpeed="12.44" duration="10.00" routeLength="80.50" waitingTime="0.00" waitingCount="0" stopTime="0.00" timeLoss="2.86" rerouteNo="0" devices="tripinfo_73" vType="DEFAULT_VEHTYPE" speedFactor="0.92" vaporized=""/>
    <tripinfo id="44" depart="20.00" departLane="99_4way_E07to4way_E08_0" departPos="5.10" departSpeed="0.00" departDelay="0.20" arrival="45.00" arrivalLane="43_4way_E09to3way_E10_0" arrivalPos="85.60" arrivalSpeed="12.50" duration="25.00" routeLength="280.50" waitingTime="0.00" waitingCount="0" stopTime="0.00" timeLoss="4.55" rerouteNo="0" devices="tripinfo_44" vType="DEFAULT_VEHTYPE" speedFactor="0.99" vaporized=""/>
    <tripinfo id="77" depart="35.00" departLane="11_3way_A08to4way_B08_0" departPos="5.10" departSpeed="0.00" departDelay="0.35" arrival="46.00" arrivalLane="11_3way_A08to4way_B08_0" arrivalPos="85.60" arrivalSpeed="10.77" duration="11.00" routeLength="80.50" waitingTime="0.00" waitingCount="0" stopTime="0.00" timeLoss="3.29" rerouteNo="0" devices="tripinfo_77" vType="DEFAULT_VEHTYPE" speedFactor="0.82" vaporized=""/>
    <tripinfo id="80" depart="36.00" departLane="119_4way_F08to4way_G08_0" departPos="5.10" departSpeed="0.00" departDelay="0.00" arrival="46.00" arrivalLane="119_4way_F08to4way_G08_0" arrivalPos="85.60" arrivalSpeed="10.69" duration="10.00" routeLength="80.50" waitingTime="0.00" waitingCount="0" stopTime="0.00" timeLoss="2.35" rerouteNo="0" devices="tripinfo_80" vType="DEFAULT_VEHTYPE" speedFactor="0.78" vaporized=""/>
    <tripinfo id="81" depart="37.00" departLane="3_4way_B04to3way_A04_0" departPos="5.10" departSpeed="0.00" departDelay="0.55" arrival="46.00" arrivalLane="3_4way_B04to3way_A04_0" arrivalPos="85.60" arrivalSpeed="12.98" duration="9.00" routeLength="80.50" waitingTime="0.00" waitingCount="0" stopTime="0.00" timeLoss="3.09" rerouteNo="0" devices="tripinfo_81" vType="DEFAULT_VEHTYPE" speedFactor="1.03" vaporized=""/>
    <tripinfo id="70" depart="32.00" departLane="95_4way_E06to4way_E05_0" departPos="5.10" departSpeed="0.00" departDelay="0.50" arrival="52.00" arrivalLane="96_4way_E05to4way_F05_0" arrivalPos="85.60" arrivalSpeed="12.10" duration="20.00" routeLength="175.13" waitingTime="0.00" waitingCount="0" stopTime="0.00" timeLoss="5.40" rerouteNo="0" devices="tripinfo_70" vType="DEFAULT_VEHTYPE" speedFactor="0.93" vaporized=""/>
    <tripinfo id="67" depart="31.00" departLane="21_3way_C03to4way_D03_0" departPos="5.10" departSpeed="0.00" departDelay="0.85" arrival="55.00" arrivalLane="40_4way_E03to3way_E02_0" arrivalPos="85.60" arrivalSpeed="16.39" duration="24.00" routeLength="280.30" waitingTime="0.00" waitingCount="0" stopTime="0.00" timeLoss="6.85" rerouteNo="0" devices="tripinfo_67" vType="DEFAULT_VEHTYPE" speedFactor="1.21" vaporized=""/>
    <tripinfo id="101" depart="46.00" departLane="23_3way_C04to4way_D04_0" departPos="5.10" departSpeed="0.00" departDelay="0.55" arrival="62.00" arrivalLane="82_4way_D04to4way_E04_0" arrivalPos="85.60" arrivalSpeed="14.16" duration="16.00" routeLength="180.50" waitingTime="0.00" waitingCount="0" stopTime="0.00" timeLoss="3.46" rerouteNo="0" devices="tripinfo_101" vType="DEFAULT_VEHTYPE" speedFactor="1.04" vaporized=""/>
    <tripinfo id="85" depart="39.00" departLane="61_3way_H05to4way_G05_0" departPos="5.10" departSpeed="0.00" departDelay="0.75" arrival="66.00" arrivalLane="110_4way_F05to4way_F04_0" arrivalPos="85.60" arrivalSpeed="12.26" duration="27.00" routeLength="275.13" waitingTime="0.00" waitingCount="0" stopTime="0.00" timeLoss="5.00" rerouteNo="0" devices="tripinfo_85" vType="DEFAULT_VEHTYPE" speedFactor="0.94" vaporized=""/>
    <tripinfo id="78" depart="36.00" departLane="23_3way_C04to4way_D04_0" departPos="5.10" departSpeed="0.00" departDelay="0.90" arrival="70.00" arrivalLane="95_4way_E05to4way_E06_0" arrivalPos="85.60" arrivalSpeed="13.31" duration="34.00" routeLength="375.13" waitingTime="0.00" waitingCount="0" stopTime="0.00" timeLoss="6.24" rerouteNo="0" devices="tripinfo_78" vType="DEFAULT_VEHTYPE" speedFactor="1.00" vaporized=""/>
    <tripinfo id="116" depart="53.00" departLane="24_3way_C06to4way_B06_0" departPos="5.10" departSpeed="0.00" departDelay="0.80" arrival="71.00" arrivalLane="17_4way_B06to3way_B05_0" arrivalPos="85.60" arrivalSpeed="14.51" duration="18.00" routeLength="175.13" waitingTime="0.00" waitingCount="0" stopTime="0.00" timeLoss="5.36" rerouteNo="0" devices="tripinfo_116" vType="DEFAULT_VEHTYPE" speedFactor="1.05" vaporized=""/>
    <tripinfo id="104" depart="47.00" departLane="57_3way_H03to4way_G03_0" departPos="5.10" departSpeed="0.00" departDelay="0.20" arrival="74.00" arrivalLane="92_4way_F03to4way_E03_0" arrivalPos="85.60" arrivalSpeed="12.29" duration="27.00" routeLength="280.50" waitingTime="0.00" waitingCount="0" stopTime="0.00" timeLoss="3.84" rerouteNo="0" devices="tripinfo_104" vType="DEFAULT_VEHTYPE" speedFactor="0.91" vaporized=""/>
    <tripinfo id="107" depart="49.00" departLane="114_4way_F06to4way_F07_0" departPos="5.10" departSpeed="0.00" departDelay="0.85" arrival="75.00" arrivalLane="86_4way_E07to4way_D07_0" arrivalPos="85.60" arrivalSpeed="14.04" duration="26.00" routeLength="275.13" waitingTime="0.00" waitingCount="0" stopTime="0.00" timeLoss="5.95" rerouteNo="0" devices="tripinfo_107" vType="DEFAULT_VEHTYPE" speedFactor="1.06" vaporized=""/>
    <tripinfo id="157" depart="71.00" departLane="102_4way_E08to4way_F08_0" departPos="5.10" departSpeed="0.00" departDelay="0.35" arrival="81.00" arrivalLane="102_4way_E08to4way_F08_0" arrivalPos="85.60" arrivalSpeed="12.84" duration="10.00" routeLength="80.50" waitingTime="0.00" waitingCount="0" stopTime="0.00" timeLoss="3.27" rerouteNo="0" devices="tripinfo_157" vType="DEFAULT_VEHTYPE" speedFactor="0.99" vaporized=""/>
    <tripinfo id="130" depart="59.00" departLane="108_4way_F03to4way_F04_0" departPos="5.10" departSpeed="0.00" departDelay="0.50" arrival="82.00" arrivalLane="94_4way_F04to4way_E04_0" arrivalPos="85.60" arrivalSpeed="9.71" duration="23.00" routeLength="175.13" waitingTime="0.00" waitingCount="0" stopTime="0.00" timeLoss="5.22" rerouteNo="0" devices="tripinfo_130" vType="DEFAULT_VEHTYPE" speedFactor="0.76" vaporized=""/>
    <tripinfo id="161" depart="73.00" departLane="95_4way_E06to4way_E05_0" departPos="5.10" departSpeed="0.00" departDelay="0.55" arrival="83.00" arrivalLane="95_4way_E06to4way_E05_0" arrivalPos="85.60" arrivalSpeed="10.58" duration="10.00" routeLength="80.50" waitingTime="0.00" waitingCount="0" stopTime="0.00" timeLoss="3.07" rerouteNo="0" devices="tripinfo_161" vType="DEFAULT_VEHTYPE" speedFactor="0.85" vaporized=""/>
    <tripinfo id="165" depart="75.00" departLane="106_4way_F02to4way_F03_0" departPos="5.10" departSpeed="0.00" departDelay="0.75" arrival="85.00" arrivalLane="106_4way_F02to4way_F03_0" arrivalPos="85.60" arrivalSpeed="12.13" duration="10.00" routeLength="80.50" waitingTime="0.00" waitingCount="0" stopTime="0.00" timeLoss="3.66" rerouteNo="0" devices="tripinfo_165" vType="DEFAULT_VEHTYPE" speedFactor="0.96" vaporized=""/>
    <tripinfo id="132" depart="60.00" departLane="75_4way_C07to4way_C08_0" departPos="5.10" departSpeed="0.00" departDelay="0.60" arrival="86.00" arrivalLane="11_4way_B08to3way_A08_0" arrivalPos="85.60" arrivalSpeed="13.90" duration="26.00" routeLength="275.13" waitingTime="0.00" waitingCount="0" stopTime="0.00" timeLoss="5.84" rerouteNo="0" devices="tripinfo_132" vType="DEFAULT_VEHTYPE" speedFactor="1.02" vaporized=""/>
    <tripinfo id="154" depart="70.00" departLane="12_3way_B10to3way_A09_0" departPos="5.10" departSpeed="0.00" departDelay="0.70" arrival="87.00" arrivalLane="12_3way_B10to3way_A09_0" arrivalPos="182.40" arrivalSpeed="13.57" duration="17.00" routeLength="177.30" waitingTime="0.00" waitingCount="0" stopTime="0.00" timeLoss="3.91" rerouteNo="0" devices="tripinfo_154" vType="DEFAULT_VEHTYPE" speedFactor="1.03" vaporized=""/>
    <tripinfo id="174" depart="79.00" departLane="74_4way_C09to4way_B09_0" departPos="5.10" departSpeed="0.00" departDelay="0.70" arrival="89.00" arrivalLane="74_4way_C09to4way_B09_0" arrivalPos="85.60" arrivalSpeed="11.70" duration="10.00" routeLength="80.50" waitingTime="0.00" waitingCount="0" stopTime="0.00" timeLoss="2.84" rerouteNo="0" devices="tripinfo_174" vType="DEFAULT_VEHTYPE" speedFactor="0.87" vaporized=""/>
    <tripinfo id="179" depart="81.00" departLane="23_3way_C04to4way_D04_0" departPos="5.10" departSpeed="0.00" departDelay="0.45" arrival="90.00" arrivalLane="23_3way_C04to4way_D04_0" arrivalPos="85.60" arrivalSpeed="13.97" duration="9.00" routeLength="80.50" waitingTime="0.00" waitingCount="0" stopTime="0.00" timeLoss="3.35" rerouteNo="0" devices="tripinfo_179" vType="DEFAULT_VEHTYPE" speedFactor="1.09" vaporized=""/>
    <tripinfo id="184" depart="83.00" departLane="90_4way_E01to4way_F01_0" departPos="5.10" departSpeed="0.00" departDelay="0.20" arrival="92.00" arrivalLane="90_4way_E01to4way_F01_0" arrivalPos="85.60" arrivalSpeed="15.97" duration="9.00" routeLength="80.50" waitingTime="0.00" waitingCount="0" stopTime="0.00" timeLoss="3.60" rerouteNo="0" devices="tripinfo_184" vType="DEFAULT_VEHTYPE" speedFactor="1.23" vaporized=""/>
    <tripinfo id="144" depart="65.00" departLane="67_3way_H08to4way_G08_0" departPos="5.10" departSpeed="0.00" departDelay="0.20" arrival="97.00" arrivalLane="114_4way_F07to4way_F06_0" arrivalPos="85.60" arrivalSpeed="13.58" duration="32.00" routeLength="375.13" waitingTime="0.00" waitingCount="0" stopTime="0.00" timeLoss="6.15" rerouteNo="0" devices="tripinfo_144" vType="DEFAULT_VEHTYPE" speedFactor="1.07" vaporized=""/>
    <tripinfo id="206" depart="93.00" departLane="36_4way_D09to3way_D10_0" departPos="5.10" departSpeed="0.00" departDelay="0.30" arrival="104.00" arrivalLane="36_4way_D09to3way_D10_0" arrivalPos="85.60" arrivalSpeed="9.47" duration="11.00" routeLength="80.50" waitingTime="0.00" waitingCount="0" stopTime="0.00" timeLoss="2.97" rerouteNo="0" devices="tripinfo_206" vType="DEFAULT_VEHTYPE" speedFactor="0.76" vaporized=""/>
    <tripinfo id="265" depart="120.00" departLane="84_4way_E06to4way_D06_0" departPos="5.10" departSpeed="0.00" departDelay="0.75" arrival="129.00" arrivalLane="84_4way_E06to4way_D06_0" arrivalPos="85.60" arrivalSpeed="15.75" duration="9.00" routeLength="80.50" waitingTime="0.00" waitingCount="0" stopTime="0.00" timeLoss="3.72" rerouteNo="0" devices="tripinfo_265" vType="DEFAULT_VEHTYPE" speedFactor="1.17" vaporized=""/>
    <tripinfo id="58" depart="27.00" departLane="77_4way_C09to4way_C08_0" departPos="5.10" departSpeed="0.00" departDelay="0.90" arrival="130.00" arrivalLane="88_4way_D08to4way_E08_0" arrivalPos="85.60" arrivalSpeed="5.60" duration="103.00" routeLength="275.13" waitingTime="73.00" waitingCount="1" stopTime="0.00" timeLoss="84.42" rerouteNo="0" devices="tripinfo_58" vType="DEFAULT_VEHTYPE" speedFactor="1.13" vaporized=""/>
    <tripinfo id="65" depart="30.00" departLane="83_4way_D07to4way_D06_0" departPos="5.10" departSpeed="0.00" departDelay="0.75" arrival="130.00" arrivalLane="83_4way_D07to4way_D06_0" arrivalPos="85.60" arrivalSpeed="4.80" duration="100.00" routeLength="80.50" waitingTime="85.00" waitingCount="1" stopTime="0.00" timeLoss="94.44" rerouteNo="0" devices="tripinfo_65" vType="DEFAULT_VEHTYPE" speedFactor="1.04" vaporized=""/>
    <tripinfo id="224" depart="101.00" departLane="60_3way_H05to3way_H06_0" departPos="5.10" departSpeed="0.00" departDelay="0.20" arrival="130.00" arrivalLane="63_3way_H06to4way_G06_0" arrivalPos="85.60" arrivalSpeed="5.93" duration="29.00" routeLength="175.13" waitingTime="4.00" waitingCount="1" stopTime="0.00" timeLoss="15.64" rerouteNo="0" devices="tripinfo_224" vType="DEFAULT_VEHTYPE" speedFactor="0.99" vaporized=""/>
    <tripinfo id="268" depart="121.00" departLane="85_4way_D07to4way_D08_0" departPos="5.10" departSpeed="0.00" departDelay="0.40" arrival="130.00" arrivalLane="85_4way_D07to4way_D08_0" arrivalPos="85.60" arrivalSpeed="14.52" duration="9.00" routeLength="80.50" waitingTime="0.00" waitingCount="0" stopTime="0.00" timeLoss="3.17" rerouteNo="0" devices="tripinfo_268" vType="DEFAULT_VEHTYPE" speedFactor="1.11" vaporized=""/>
    <tripinfo id="147" depart="67.00" departLane="127_4way_G07to4way_G08_0" departPos="5.10" departSpeed="0.00" departDelay="0.85" arrival="133.00" arrivalLane="127_4way_G07to4way_G08_0" arrivalPos="85.60" arrivalSpeed="6.96" duration="66.00" routeLength="80.50" waitingTime="50.00" waitingCount="1" stopTime="0.00" timeLoss="60.88" rerouteNo="0" devices="tripinfo_147" vType="DEFAULT_VEHTYPE" speedFactor="1.17" vaporized=""/>
    <tripinfo id="261" depart="118.00" departLane="72_4way_B08to4way_B09_0" departPos="5.10" departSpeed="0.00" departDelay="0.55" arrival="134.00" arrivalLane="19_4way_B09to3way_B10_0" arrivalPos="85.60" arrivalSpeed="15.04" duration="16.00" routeLength="180.50" waitingTime="0.00" waitingCount="0" stopTime="0.00" timeLoss="4.01" rerouteNo="0" devices="tripinfo_261" vType="DEFAULT_VEHTYPE" speedFactor="1.11" vaporized=""/>
    <tripinfo id="87" depart="40.00" departLane="7_3way_A06to4way_B06_0" departPos="5.10" departSpeed="0.00" departDelay="0.85" arrival="135.00" arrivalLane="84_4way_D06to4way_E06_0" arrivalPos="85.60" arrivalSpeed="7.12" duration="95.00" routeLength="380.50" waitingTime="59.00" waitingCount="1" stopTime="0.00" timeLoss="71.31" rerouteNo="0" devices="tripinfo_87" vType="DEFAULT_VEHTYPE" speedFactor="1.16" vaporized=""/>
    <tripinfo id="148" depart="67.00" departLane="107_4way_F02to4way_G02_0" departPos="5.10" departSpeed="0.00" departDelay="0.40" arrival="135.00" arrivalLane="122_4way_G02to4way_G03_0" arrivalPos="85.60" arrivalSpeed="8.68" duration="68.00" routeLength="175.13" waitingTime="44.00" waitingCount="1" stopTime="0.00" timeLoss="55.71" rerouteNo="0" devices="tripinfo_148" vType="DEFAULT_VEHTYPE" speedFactor="1.09" vaporized=""/>
    <tripinfo id="259" depart="117.00" departLane="5_3way_B05to3way_A05_0" departPos="5.10" departSpeed="0.00" departDelay="0.45" arrival="136.00" arrivalLane="1_3way_A05to3way_A04_0" arrivalPos="85.60" arrivalSpeed="14.67" duration="19.00" routeLength="175.13" waitingTime="0.00" waitingCount="0" stopTime="0.00" timeLoss="6.41" rerouteNo="0" devices="tripinfo_259" vType="DEFAULT_VEHTYPE" speedFactor="1.10" vaporized=""/>
    <tripinfo id="52" depart="24.00" departLane="125_4way_G06to4way_G05_0" departPos="5.10" departSpeed="0.00" departDelay="0.60" arrival="137.00" arrivalLane="61_4way_G05to3way_H05_0" arrivalPos="85.60" arrivalSpeed="12.20" duration="113.00" routeLength="175.13" waitingTime="88.00" waitingCount="1" stopTime="0.00" timeLoss="98.02" rerouteNo="0" devices="tripinfo_52" vType="DEFAULT_VEHTYPE" speedFactor="0.89" vaporized=""/>
    <tripinfo id="76" depart="36.00" departLane="34_3way_D05to4way_E05_0" departPos="5.10" departSpeed="0.00" departDelay="1.80" arrival="137.00" arrivalLane="96_4way_E05to4way_F05_0" arrivalPos="85.60" arrivalSpeed="13.56" duration="101.00" routeLength="180.50" waitingTime="79.00" waitingCount="1" stopTime="0.00" timeLoss="87.95" rerouteNo="0" devices="tripinfo_76" vType="DEFAULT_VEHTYPE" speedFactor="1.04" vaporized=""/>
    <tripinfo id="96" depart="44.00" departLane="56_3way_H03to3way_H04_0" departPos="5.10" departSpeed="0.00" departDelay="0.80" arrival="137.00" arrivalLane="58_3way_H04to3way_H05_0" arrivalPos="85.60" arrivalSpeed="13.39" duration="93.00" routeLength="180.50" waitingTime="71.00" waitingCount="1" stopTime="0.00" timeLoss="79.51" rerouteNo="0" devices="tripinfo_96" vType="DEFAULT_VEHTYPE" speedFactor="1.01" vaporized=""/>
    <tripinfo id="136" depart="62.00" departLane="111_4way_F04to4way_G04_0" departPos="5.10" departSpeed="0.00" departDelay="0.80" arrival="137.00" arrivalLane="124_4way_G04to4way_G05_0" arrivalPos="85.60" arrivalSpeed="8.64" duration="75.00" routeLength="175.13" waitingTime="49.00" waitingCount="1" stopTime="0.00" timeLoss="61.54" rerouteNo="0" devices="tripinfo_136" vType="DEFAULT_VEHTYPE" speedFactor="1.02" vaporized=""/>
    <tripinfo id="193" depart="87.00" departLane="13_4way_B09to3way_A09_0" departPos="5.10" departSpeed="0.00" departDelay="0.15" arrival="137.00" arrivalLane="10_3way_A09to3way_A08_0" arrivalPos="85.60" arrivalSpeed="14.47" duration="50.00" routeLength="175.13" waitingTime="27.00" waitingCount="1" stopTime="0.00" timeLoss="36.66" rerouteNo="0" devices="tripinfo_193" vType="DEFAULT_VEHTYPE" speedFactor="1.05" vaporized=""/>
    <tripinfo id="248" depart="112.00" departLane="90_4way_F01to4way_E01_0" departPos="5.10" departSpeed="0.00" departDelay="0.40" arrival="138.00" arrivalLane="31_4way_E01to3way_D01_0" arrivalPos="85.60" arrivalSpeed="11.90" duration="26.00" routeLength="180.50" waitingTime="2.00" waitingCount="1" stopTime="0.00" timeLoss="10.63" rerouteNo="0" devices="tripinfo_248" vType="DEFAULT_VEHTYPE" speedFactor="0.89" vaporized=""/>
    <tripinfo id="16" depart="8.00" departLane="32_3way_D05to4way_D04_0" departPos="5.10" departSpeed="0.00" departDelay="0.80" arrival="140.00" arrivalLane="23_4way_D04to3way_C04_0" arrivalPos="85.60" arrivalSpeed="15.08" duration="132.00" routeLength="180.30" waitingTime="110.00" waitingCount="2" stopTime="0.00" timeLoss="119.14" rerouteNo="0" devices="tripinfo_16" vType="DEFAULT_VEHTYPE" speedFactor="1.09" vaporized=""/>
    <tripinfo id="94" depart="43.00" departLane="61_4way_G05to3way_H05_0" departPos="5.10" departSpeed="0.00" departDelay="0.70" arrival="140.00" arrivalLane="64_3way_H07to3way_H08_0" arrivalPos="85.60" arrivalSpeed="14.73" duration="97.00" routeLength="375.13" waitingTime="58.00" waitingCount="1" stopTime="0.00" timeLoss="70.77" rerouteNo="0" devices="tripinfo_94" vType="DEFAULT_VEHTYPE" speedFactor="1.07" vaporized=""/>
    <tripinfo id="135" depart="61.00" departLane="125_4way_G06to4way_G05_0" departPos="5.10" departSpeed="0.00" departDelay="0.25" arrival="140.00" arrivalLane="61_4way_G05to3way_H05_0" arrivalPos="85.60" arrivalSpeed="12.88" duration="79.00" routeLength="175.13" waitingTime="53.00" waitingCount="1" stopTime="0.00" timeLoss="64.07" rerouteNo="0" devices="tripinfo_135" vType="DEFAULT_VEHTYPE" speedFactor="0.94" vaporized=""/>
    <tripinfo id="207" depart="94.00" departLane="128_4way_G09to4way_G08_0" departPos="5.10" departSpeed="0.00" departDelay="0.85" arrival="140.00" arrivalLane="128_4way_G09to4way_G08_0" arrivalPos="85.60" arrivalSpeed="3.94" duration="46.00" routeLength="80.50" waitingTime="28.00" waitingCount="2" stopTime="0.00" timeLoss="39.82" rerouteNo="0" devices="tripinfo_207" vType="DEFAULT_VEHTYPE" speedFactor="0.96" vaporized=""/>
    <tripinfo id="95" depart="43.00" departLane="78_4way_C08to4way_D08_0" departPos="5.10" departSpeed="0.00" departDelay="0.25" arrival="141.00" arrivalLane="101_4way_E08to4way_E09_0" arrivalPos="85.60" arrivalSpeed="14.00" duration="98.00" routeLength="275.13" waitingTime="66.00" waitingCount="1" stopTime="0.00" timeLoss="77.99" rerouteNo="0" devices="tripinfo_95" vType="DEFAULT_VEHTYPE" speedFactor="1.02" vaporized=""/>
    <tripinfo id="113" depart="51.00" departLane="60_3way_H06to3way_H05_0" departPos="5.10" departSpeed="0.00" departDelay="0.15" arrival="144.00" arrivalLane="56_3way_H04to3way_H03_0" arrivalPos="85.60" arrivalSpeed="14.07" duration="93.00" routeLength="280.50" waitingTime="64.00" waitingCount="1" stopTime="0.00" timeLoss="73.36" rerouteNo="0" devices="tripinfo_113" vType="DEFAULT_VEHTYPE" speedFactor="1.08" vaporized=""/>
    <tripinfo id="277" depart="125.00" departLane="35_3way_E10to3way_D10_0" departPos="5.10" departSpeed="0.00" departDelay="0.35" arrival="144.00" arrivalLane="36_3way_D10to4way_D09_0" arrivalPos="85.60" arrivalSpeed="14.89" duration="19.00" routeLength="175.13" waitingTime="0.00" waitingCount="0" stopTime="0.00" timeLoss="6.07" rerouteNo="0" devices="tripinfo_277" vType="DEFAULT_VEHTYPE" speedFactor="1.09" vaporized=""/>
    <tripinfo id="278" depart="126.00" departLane="118_4way_F09to4way_F08_0" departPos="5.10" departSpeed="0.00" departDelay="0.90" arrival="144.00" arrivalLane="119_4way_F08to4way_G08_0" arrivalPos="85.60" arrivalSpeed="14.72" duration="18.00" routeLength="175.13" waitingTime="0.00" waitingCount="0" stopTime="0.00" timeLoss="5.38" rerouteNo="0" devices="tripinfo_278" vType="DEFAULT_VEHTYPE" speedFactor="1.11" vaporized=""/>
    <tripinfo id="201" depart="91.00" departLane="7_3way_A06to4way_B06_0" departPos="5.10" departSpeed="0.00" departDelay="0.55" arrival="145.00" arrivalLane="87_4way_D08to4way_D09_0" arrivalPos="85.60" arrivalSpeed="12.02" duration="54.00" routeLength="575.13" waitingTime="0.00" waitingCount="0" stopTime="0.00" timeLoss="6.83" rerouteNo="0" devices="tripinfo_201" vType="DEFAULT_VEHTYPE" speedFactor="0.91" vaporized=""/>
    <tripinfo id="1" depart="1.00" departLane="32_4way_D04to3way_D05_0" departPos="5.10" departSpeed="0.00" departDelay="0.55" arrival="146.00" arrivalLane="85_4way_D07to4way_D08_0" arrivalPos="85.60" arrivalSpeed="12.97" duration="145.00" routeLength="380.50" waitingTime="106.00" waitingCount="1" stopTime="0.00" timeLoss="115.19" rerouteNo="0" devices="tripinfo_1" vType="DEFAULT_VEHTYPE" speedFactor="0.94" vaporized=""/>
    <tripinfo id="110" depart="50.00" departLane="63_4way_G06to3way_H06_0" departPos="5.10" departSpeed="0.00" departDelay="0.50" arrival="146.00" arrivalLane="64_3way_H07to3way_H08_0" arrivalPos="85.60" arrivalSpeed="12.01" duration="96.00" routeLength="275.13" waitingTime="65.00" waitingCount="1" stopTime="0.00" timeLoss="72.96" rerouteNo="0" devices="tripinfo_110" vType="DEFAULT_VEHTYPE" speedFactor="0.91" vaporized=""/>
    <tripinfo id="141" depart="64.00" departLane="76_4way_C07to4way_D07_0" departPos="5.10" departSpeed="0.00" departDelay="0.55" arrival="146.00" arrivalLane="127_4way_G07to4way_G08_0" arrivalPos="85.60" arrivalSpeed="14.25" duration="82.00" routeLength="475.13" waitingTime="36.00" waitingCount="1" stopTime="0.00" timeLoss="48.35" rerouteNo="0" devices="tripinfo_141" vType="DEFAULT_VEHTYPE" speedFactor="1.03" vaporized=""/>
    <tripinfo id="151" depart="68.00" departLane="8_3way_A07to3way_A08_0" departPos="5.10" departSpeed="0.00" departDelay="0.05" arrival="146.00" arrivalLane="35_3way_D10to3way_E10_0" arrivalPos="85.60" arrivalSpeed="12.06" duration="78.00" routeLength="683.70" waitingTime="11.00" waitingCount="1" stopTime="0.00" timeLoss="23.57" rerouteNo="0" devices="tripinfo_151" vType="DEFAULT_VEHTYPE" speedFactor="0.91" vaporized=""/>
    <tripinfo id="171" depart="77.00" departLane="45_3way_F00to4way_F01_0" departPos="5.10" departSpeed="0.00" departDelay="0.05" arrival="146.00" arrivalLane="31_4way_E01to3way_D01_0" arrivalPos="85.60" arrivalSpeed="14.08" duration="69.00" routeLength="275.13" waitingTime="38.00" waitingCount="1" stopTime="0.00" timeLoss="49.41" rerouteNo="0" devices="tripinfo_171" vType="DEFAULT_VEHTYPE" speedFactor="1.05" vaporized=""/>
    <tripinfo id="122" depart="55.00" departLane="77_4way_C08to4way_C09_0" departPos="5.10" departSpeed="0.00" departDelay="0.10" arrival="147.00" arrivalLane="42_3way_E10to3way_F10_0" arrivalPos="85.60" arrivalSpeed="13.12" duration="92.00" routeLength="480.29" waitingTime="44.00" waitingCount="1" stopTime="0.00" timeLoss="56.14" rerouteNo="0" devices="tripinfo_122" vType="DEFAULT_VEHTYPE" speedFactor="1.00" vaporized=""/>
    <tripinfo id="146" depart="66.00" departLane="47_4way_F09to3way_F10_0" departPos="5.10" departSpeed="0.00" departDelay="0.30" arrival="148.00" arrivalLane="27_3way_D10to3way_C10_0" arrivalPos="85.60" arrivalSpeed="13.12" duration="82.00" routeLength="375.13" waitingTime="39.00" waitingCount="1" stopTime="0.00" timeLoss="52.41" rerouteNo="0" devices="tripinfo_146" vType="DEFAULT_VEHTYPE" speedFactor="0.98" vaporized=""/>
    <tripinfo id="273" depart="123.00" departLane="30_3way_D01to4way_D03_0" departPos="5.10" departSpeed="0.00" departDelay="0.15" arrival="148.00" arrivalLane="21_4way_D03to3way_C03_0" arrivalPos="85.60" arrivalSpeed="15.31" duration="25.00" routeLength="275.13" waitingTime="0.00" waitingCount="0" stopTime="0.00" timeLoss="5.98" rerouteNo="0" devices="tripinfo_273" vType="DEFAULT_VEHTYPE" speedFactor="1.14" vaporized=""/>
    <tripinfo id="290" depart="131.00" departLane="8_3way_A08to3way_A07_0" departPos="5.10" departSpeed="0.00" departDelay="0.50" arrival="148.00" arrivalLane="6_3way_A07to3way_A06_0" arrivalPos="85.60" arrivalSpeed="10.34" duration="17.00" routeLength="180.50" waitingTime="0.00" waitingCount="0" stopTime="0.00" timeLoss="5.98" rerouteNo="0" devices="tripinfo_290" vType="DEFAULT_VEHTYPE" speedFactor="1.20" vaporized=""/>
    <tripinfo id="28" depart="13.00" departLane="27_3way_C10to3way_D10_0" departPos="5.10" departSpeed="0.00" departDelay="0.40" arrival="151.00" arrivalLane="46_3way_F10to3way_G10_0" arrivalPos="85.60" arrivalSpeed="15.04" duration="138.00" routeLength="380.50" waitingTime="102.00" waitingCount="1" stopTime="0.00" timeLoss="112.98" rerouteNo="0" devices="tripinfo_28" vType="DEFAULT_VEHTYPE" speedFactor="1.14" vaporized=""/>
    <tripinfo id="175" depart="79.00" departLane="34_4way_E05to3way_D05_0" departPos="5.10" departSpeed="0.00" departDelay="0.25" arrival="151.00" arrivalLane="80_4way_D04to4way_D03_0" arrivalPos="85.60" arrivalSpeed="13.44" duration="72.00" routeLength="275.13" waitingTime="35.00" waitingCount="1" stopTime="0.00" timeLoss="52.67" rerouteNo="0" devices="tripinfo_175" vType="DEFAULT_VEHTYPE" speedFactor="1.06" vaporized=""/>