<?xml version="1.0" encoding="UTF-8"?>

<!-- generated on 2023-11-25 22:08:30 by Eclipse SUMO sumo Version 1.12.0
<configuration xmlns:xsi="http://www.w3.org/2001/XMLSchema-instance" xsi:noNamespaceSchemaLocation="http://sumo.dlr.de/xsd/sumoConfiguration.xsd">

    <input>
        <net-file value="../../data_generation/sapporo_HY.net.xml"/>
        <route-files value="../../data_generation/sapporo_HY.rou.xml"/>
    </input>

    <output>
        <tripinfo-output value="tripinfo.xml"/>
        <statistic-output value="statistic.xml"/>
    </output>

    <time>
        <begin value="0"/>
        <end value="3600"/>
    </time>

    <processing>
        <time-to-teleport value="-1"/>
    </processing>

    <traci_server>
        <remote-port value="54065"/>
    </traci_server>

    <random_number>
        <seed value="5"/>
    </random_number>

    <gui_only>
        <gui-settings-file value="../../data_generation/view_HY_0402.xml"/>
    </gui_only>

</configuration>
-->

<tripinfos xmlns:xsi="http://www.w3.org/2001/XMLSchema-instance" xsi:noNamespaceSchemaLocation="http://sumo.dlr.de/xsd/tripinfo_file.xsd">
    <tripinfo id="7" depart="4.00" departLane="12_3way_B10to3way_A09_0" departPos="5.10" departSpeed="0.00" departDelay="0.08" arrival="22.00" arrivalLane="12_3way_B10to3way_A09_0" arrivalPos="182.40" arrivalSpeed="12.99" duration="18.00" routeLength="177.30" waitingTime="0.00" waitingCount="0" stopTime="0.00" timeLoss="3.45" rerouteNo="0" devices="tripinfo_7" vType="DEFAULT_VEHTYPE" speedFactor="0.94" vaporized=""/>
    <tripinfo id="16" depart="9.00" departLane="32_3way_D05to4way_D04_0" departPos="5.10" departSpeed="0.00" departDelay="0.04" arrival="28.00" arrivalLane="23_4way_D04to3way_C04_0" arrivalPos="85.60" arrivalSpeed="13.84" duration="19.00" routeLength="180.30" waitingTime="0.00" waitingCount="0" stopTime="0.00" timeLoss="5.51" rerouteNo="0" devices="tripinfo_16" vType="DEFAULT_VEHTYPE" speedFactor="1.07" vaporized=""/>
    <tripinfo id="18" depart="11.00" departLane="96_4way_E05to4way_F05_0" departPos="5.10" departSpeed="0.00" departDelay="0.92" arrival="29.00" arrivalLane="113_4way_F05to4way_G05_0" arrivalPos="85.60" arrivalSpeed="12.51" duration="18.00" routeLength="180.50" waitingTime="0.00" waitingCount="0" stopTime="0.00" timeLoss="3.67" rerouteNo="0" devices="tripinfo_18" vType="DEFAULT_VEHTYPE" speedFactor="0.95" vaporized=""/>
    <tripinfo id="19" depart="11.00" departLane="20_3way_C03to3way_C04_0" departPos="5.10" departSpeed="0.00" departDelay="0.36" arrival="31.00" arrivalLane="22_3way_C04to4way_B04_0" arrivalPos="85.60" arrivalSpeed="13.17" duration="20.00" routeLength="175.13" waitingTime="0.00" waitingCount="0" stopTime="0.00" timeLoss="5.14" rerouteNo="0" devices="tripinfo_19" vType="DEFAULT_VEHTYPE" speedFactor="0.95" vaporized=""/>
    <tripinfo id="51" depart="29.00" departLane="83_4way_D06to4way_D07_0" departPos="5.10" departSpeed="0.00" departDelay="0.44" arrival="39.00" arrivalLane="83_4way_D06to4way_D07_0" arrivalPos="85.60" arrivalSpeed="12.50" duration="10.00" routeLength="80.50" waitingTime="0.00" waitingCount="0" stopTime="0.00" timeLoss="3.82" rerouteNo="0" devices="tripinfo_51" vType="DEFAULT_VEHTYPE" speedFactor="0.96" vaporized=""/>
    <tripinfo id="65" depart="37.00" departLane="83_4way_D07to4way_D06_0" departPos="5.10" departSpeed="0.00" departDelay="0.60" arrival="47.00" arrivalLane="83_4way_D07to4way_D06_0" arrivalPos="85.60" arrivalSpeed="12.35" duration="10.00" routeLength="80.50" waitingTime="0.00" waitingCount="0" stopTime="0.00" timeLoss="3.28" rerouteNo="0" devices="tripinfo_65" vType="DEFAULT_VEHTYPE" speedFactor="0.92" vaporized=""/>
    <tripinfo id="4" depart="3.00" departLane="24_4way_B06to3way_C06_0" departPos="5.10" departSpeed="0.00" departDelay="0.76" arrival="48.00" arrivalLane="126_4way_G06to4way_G07_0" arrivalPos="85.60" arrivalSpeed="14.74" duration="45.00" routeLength="575.13" waitingTime="0.00" waitingCount="0" stopTime="0.00" timeLoss="6.72" rerouteNo="0" devices="tripinfo_4" vType="DEFAULT_VEHTYPE" speedFactor="1.12" vaporized=""/>
    <tripinfo id="73" depart="41.00" departLane="47_4way_F09to3way_F10_0" departPos="5.10" departSpeed="0.00" departDelay="0.12" arrival="51.00" arrivalLane="47_4way_F09to3way_F10_0" arrivalPos="85.60" arrivalSpeed="12.75" duration="10.00" routeLength="80.50" waitingTime="0.00" waitingCount="0" stopTime="0.00" timeLoss="3.12" rerouteNo="0" devices="tripinfo_73" vType="DEFAULT_VEHTYPE" speedFactor="0.95" vaporized=""/>
    <tripinfo id="8" depart="5.00" departLane="98_4way_F06to4way_E06_0" departPos="5.10" departSpeed="0.00" departDelay="0.52" arrival="52.00" arrivalLane="4_3way_A06to3way_A05_0" arrivalPos="85.60" arrivalSpeed="13.57" duration="47.00" routeLength="575.13" waitingTime="0.00" waitingCount="0" stopTime="0.00" timeLoss="6.87" rerouteNo="0" devices="tripinfo_8" vType="DEFAULT_VEHTYPE" speedFactor="1.06" vaporized=""/>
    <tripinfo id="77" depart="44.00" departLane="11_3way_A08to4way_B08_0" departPos="5.10" departSpeed="0.00" departDelay="0.88" arrival="53.00" arrivalLane="11_3way_A08to4way_B08_0" arrivalPos="85.60" arrivalSpeed="11.96" duration="9.00" routeLength="80.50" waitingTime="0.00" waitingCount="0" stopTime="0.00" timeLoss="2.80" rerouteNo="0" devices="tripinfo_77" vType="DEFAULT_VEHTYPE" speedFactor="0.93" vaporized=""/>
    <tripinfo id="80" depart="45.00" departLane="119_4way_F08to4way_G08_0" departPos="5.10" departSpeed="0.00" departDelay="0.20" arrival="55.00" arrivalLane="119_4way_F08to4way_G08_0" arrivalPos="85.60" arrivalSpeed="12.72" duration="10.00" routeLength="80.50" waitingTime="0.00" waitingCount="0" stopTime="0.00" timeLoss="3.52" rerouteNo="0" devices="tripinfo_80" vType="DEFAULT_VEHTYPE" speedFactor="0.96" vaporized=""/>
    <tripinfo id="81" depart="46.00" departLane="3_4way_B04to3way_A04_0" departPos="5.10" departSpeed="0.00" departDelay="0.64" arrival="56.00" arrivalLane="3_4way_B04to3way_A04_0" arrivalPos="85.60" arrivalSpeed="12.81" duration="10.00" routeLength="80.50" waitingTime="0.00" waitingCount="0" stopTime="0.00" timeLoss="3.35" rerouteNo="0" devices="tripinfo_81" vType="DEFAULT_VEHTYPE" speedFactor="0.98" vaporized=""/>
    <tripinfo id="58" depart="33.00" departLane="77_4way_C09to4way_C08_0" departPos="5.10" departSpeed="0.00" departDelay="0.52" arrival="58.00" arrivalLane="88_4way_D08to4way_E08_0" arrivalPos="85.60" arrivalSpeed="13.98" duration="25.00" routeLength="275.13" waitingTime="0.00" waitingCount="0" stopTime="0.00" timeLoss="5.01" rerouteNo="0" devices="tripinfo_58" vType="DEFAULT_VEHTYPE" speedFactor="1.02" vaporized=""/>
    <tripinfo id="76" depart="43.00" departLane="34_3way_D05to4way_E05_0" departPos="5.10" departSpeed="0.00" departDelay="0.44" arrival="59.00" arrivalLane="96_4way_E05to4way_F05_0" arrivalPos="85.60" arrivalSpeed="15.73" duration="16.00" routeLength="180.50" waitingTime="0.00" waitingCount="0" stopTime="0.00" timeLoss="4.60" rerouteNo="0" devices="tripinfo_76" vType="DEFAULT_VEHTYPE" speedFactor="1.19" vaporized=""/>
    <tripinfo id="43" depart="25.00" departLane="94_4way_E04to4way_F04_0" departPos="5.10" departSpeed="0.00" departDelay="0.92" arrival="63.00" arrivalLane="45_4way_F01to3way_F00_0" arrivalPos="85.60" arrivalSpeed="15.48" duration="38.00" routeLength="480.30" waitingTime="0.00" waitingCount="0" stopTime="0.00" timeLoss="7.20" rerouteNo="0" devices="tripinfo_43" vType="DEFAULT_VEHTYPE" speedFactor="1.15" vaporized=""/>
    <tripinfo id="67" depart="38.00" departLane="21_3way_C03to4way_D03_0" departPos="5.10" departSpeed="0.00" departDelay="0.48" arrival="64.00" arrivalLane="40_4way_E03to3way_E02_0" arrivalPos="85.60" arrivalSpeed="13.71" duration="26.00" routeLength="280.30" waitingTime="0.00" waitingCount="0" stopTime="0.00" timeLoss="5.60" rerouteNo="0" devices="tripinfo_67" vType="DEFAULT_VEHTYPE" speedFactor="1.05" vaporized=""/>
    <tripinfo id="23" depart="13.00" departLane="21_3way_C03to4way_D03_0" departPos="5.10" departSpeed="0.00" departDelay="0.12" arrival="70.00" arrivalLane="33_3way_D05to4way_D06_0" arrivalPos="85.60" arrivalSpeed="5.45" duration="57.00" routeLength="375.13" waitingTime="19.00" waitingCount="1" stopTime="0.00" timeLoss="30.21" rerouteNo="0" devices="tripinfo_23" vType="DEFAULT_VEHTYPE" speedFactor="1.05" vaporized=""/>
    <tripinfo id="15" depart="9.00" departLane="107_4way_F02to4way_G02_0" departPos="5.10" departSpeed="0.00" departDelay="0.60" arrival="76.00" arrivalLane="55_4way_G02to3way_H02_0" arrivalPos="85.60" arrivalSpeed="16.93" duration="67.00" routeLength="180.50" waitingTime="45.00" waitingCount="1" stopTime="0.00" timeLoss="56.32" rerouteNo="0" devices="tripinfo_15" vType="DEFAULT_VEHTYPE" speedFactor="1.27" vaporized=""/>
    <tripinfo id="96" depart="54.00" departLane="56_3way_H03to3way_H04_0" departPos="5.10" departSpeed="0.00" departDelay="0.24" arrival="76.00" arrivalLane="58_3way_H04to3way_H05_0" arrivalPos="85.60" arrivalSpeed="15.28" duration="22.00" routeLength="180.50" waitingTime="1.00" waitingCount="1" stopTime="0.00" timeLoss="9.96" rerouteNo="0" devices="tripinfo_96" vType="DEFAULT_VEHTYPE" speedFactor="1.10" vaporized=""/>
    <tripinfo id="5" depart="3.00" departLane="81_4way_D03to4way_E03_0" departPos="5.10" departSpeed="0.00" departDelay="0.20" arrival="77.00" arrivalLane="108_4way_F03to4way_F04_0" arrivalPos="85.60" arrivalSpeed="17.05" duration="74.00" routeLength="275.13" waitingTime="45.00" waitingCount="1" stopTime="0.00" timeLoss="57.41" rerouteNo="0" devices="tripinfo_5" vType="DEFAULT_VEHTYPE" speedFactor="1.28" vaporized=""/>
    <tripinfo id="34" depart="20.00" departLane="88_4way_D08to4way_E08_0" departPos="5.10" departSpeed="0.00" departDelay="0.96" arrival="77.00" arrivalLane="119_4way_F08to4way_G08_0" arrivalPos="85.60" arrivalSpeed="12.72" duration="57.00" routeLength="280.50" waitingTime="27.00" waitingCount="1" stopTime="0.00" timeLoss="35.81" rerouteNo="0" devices="tripinfo_34" vType="DEFAULT_VEHTYPE" speedFactor="0.96" vaporized=""/>
    <tripinfo id="63" depart="36.00" departLane="74_4way_B09to4way_C09_0" departPos="5.10" departSpeed="0.00" departDelay="0.72" arrival="77.00" arrivalLane="79_4way_C09to4way_D09_0" arrivalPos="85.60" arrivalSpeed="13.93" duration="41.00" routeLength="180.50" waitingTime="19.00" waitingCount="1" stopTime="0.00" timeLoss="27.65" rerouteNo="0" devices="tripinfo_63" vType="DEFAULT_VEHTYPE" speedFactor="1.02" vaporized=""/>
    <tripinfo id="70" depart="40.00" departLane="95_4way_E06to4way_E05_0" departPos="5.10" departSpeed="0.00" departDelay="0.80" arrival="77.00" arrivalLane="96_4way_E05to4way_F05_0" arrivalPos="85.60" arrivalSpeed="14.84" duration="37.00" routeLength="175.13" waitingTime="15.00" waitingCount="1" stopTime="0.00" timeLoss="24.53" rerouteNo="0" devices="tripinfo_70" vType="DEFAULT_VEHTYPE" speedFactor="1.14" vaporized=""/>
    <tripinfo id="75" depart="42.00" departLane="118_4way_F08to4way_F09_0" departPos="5.10" departSpeed="0.00" departDelay="0.00" arrival="81.00" arrivalLane="35_3way_E10to3way_D10_0" arrivalPos="85.60" arrivalSpeed="12.13" duration="39.00" routeLength="375.13" waitingTime="0.00" waitingCount="0" stopTime="0.00" timeLoss="6.51" rerouteNo="0" devices="tripinfo_75" vType="DEFAULT_VEHTYPE" speedFactor="0.88" vaporized=""/>
    <tripinfo id="6" depart="4.00" departLane="111_4way_G04to4way_F04_0" departPos="5.10" departSpeed="0.00" departDelay="0.64" arrival="83.00" arrivalLane="32_4way_D04to3way_D05_0" arrivalPos="85.60" arrivalSpeed="13.16" duration="79.00" routeLength="380.30" waitingTime="40.00" waitingCount="2" stopTime="0.00" timeLoss="49.38" rerouteNo="0" devices="tripinfo_6" vType="DEFAULT_VEHTYPE" speedFactor="0.95" vaporized=""/>
    <tripinfo id="24" depart="14.00" departLane="28_3way_C10to4way_C09_0" departPos="5.10" departSpeed="0.00" departDelay="0.56" arrival="83.00" arrivalLane="120_4way_F09to4way_G09_0" arrivalPos="85.60" arrivalSpeed="14.58" duration="69.00" routeLength="475.13" waitingTime="24.00" waitingCount="1" stopTime="0.00" timeLoss="37.71" rerouteNo="0" devices="tripinfo_24" vType="DEFAULT_VEHTYPE" speedFactor="1.13" vaporized=""/>
    <tripinfo id="26" depart="15.00" departLane="57_3way_H03to4way_G03_0" departPos="5.10" departSpeed="0.00" departDelay="0.44" arrival="83.00" arrivalLane="92_4way_F03to4way_E03_0" arrivalPos="85.60" arrivalSpeed="15.38" duration="68.00" routeLength="280.50" waitingTime="40.00" waitingCount="1" stopTime="0.00" timeLoss="49.75" rerouteNo="0" devices="tripinfo_26" vType="DEFAULT_VEHTYPE" speedFactor="1.11" vaporized=""/>
    <tripinfo id="104" depart="59.00" departLane="57_3way_H03to4way_G03_0" departPos="5.10" departSpeed="0.00" departDelay="0.76" arrival="85.00" arrivalLane="92_4way_F03to4way_E03_0" arrivalPos="85.60" arrivalSpeed="14.40" duration="26.00" routeLength="280.50" waitingTime="0.00" waitingCount="0" stopTime="0.00" timeLoss="7.35" rerouteNo="0" devices="tripinfo_104" vType="DEFAULT_VEHTYPE" speedFactor="1.09" vaporized=""/>
    <tripinfo id="60" depart="34.00" departLane="87_4way_D08to4way_D09_0" departPos="5.10" departSpeed="0.00" departDelay="0.40" arrival="86.00" arrivalLane="74_4way_C09to4way_B09_0" arrivalPos="85.60" arrivalSpeed="11.37" duration="52.00" routeLength="275.13" waitingTime="20.00" waitingCount="1" stopTime="0.00" timeLoss="28.32" rerouteNo="0" devices="tripinfo_60" vType="DEFAULT_VEHTYPE" speedFactor="0.87" vaporized=""/>
    <tripinfo id="79" depart="45.00" departLane="103_4way_F09to4way_E09_0" departPos="5.10" departSpeed="0.00" departDelay="0.76" arrival="86.00" arrivalLane="99_4way_E08to4way_E07_0" arrivalPos="85.60" arrivalSpeed="12.36" duration="41.00" routeLength="275.13" waitingTime="9.00" waitingCount="1" stopTime="0.00" timeLoss="18.54" rerouteNo="0" devices="tripinfo_79" vType="DEFAULT_VEHTYPE" speedFactor="0.95" vaporized=""/>
    <tripinfo id="28" depart="16.00" departLane="27_3way_C10to3way_D10_0" departPos="5.10" departSpeed="0.00" departDelay="0.32" arrival="87.00" arrivalLane="46_3way_F10to3way_G10_0" arrivalPos="85.60" arrivalSpeed="12.91" duration="71.00" routeLength="380.50" waitingTime="32.00" waitingCount="1" stopTime="0.00" timeLoss="43.48" rerouteNo="0" devices="tripinfo_28" vType="DEFAULT_VEHTYPE" speedFactor="1.02" vaporized=""/>
    <tripinfo id="49" depart="28.00" departLane="127_4way_G07to4way_G08_0" departPos="5.10" departSpeed="0.00" departDelay="0.56" arrival="87.00" arrivalLane="102_4way_F08to4way_E08_0" arrivalPos="85.60" arrivalSpeed="13.86" duration="59.00" routeLength="275.13" waitingTime="29.00" waitingCount="1" stopTime="0.00" timeLoss="38.25" rerouteNo="0" devices="tripinfo_49" vType="DEFAULT_VEHTYPE" speedFactor="1.02" vaporized=""/>
    <tripinfo id="100" depart="56.00" departLane="8_3way_A08to3way_A07_0" departPos="5.10" departSpeed="0.00" departDelay="0.00" arrival="88.00" arrivalLane="4_3way_A06to3way_A05_0" arrivalPos="85.60" arrivalSpeed="13.00" duration="32.00" routeLength="280.50" waitingTime="1.00" waitingCount="1" stopTime="0.00" timeLoss="10.46" rerouteNo="0" devices="tripinfo_100" vType="DEFAULT_VEHTYPE" speedFactor="0.95" vaporized=""/>
    <tripinfo id="82" depart="46.00" departLane="68_3way_H09to4way_G09_0" departPos="5.10" departSpeed="0.00" departDelay="0.08" arrival="90.00" arrivalLane="101_4way_E09to4way_E08_0" arrivalPos="85.60" arrivalSpeed="13.67" duration="44.00" routeLength="375.13" waitingTime="1.00" waitingCount="1" stopTime="0.00" timeLoss="15.84" rerouteNo="0" devices="tripinfo_82" vType="DEFAULT_VEHTYPE" speedFactor="1.00" vaporized=""/>
    <tripinfo id="113" depart="64.00" departLane="60_3way_H06to3way_H05_0" departPos="5.10" departSpeed="0.00" departDelay="0.72" arrival="93.00" arrivalLane="56_3way_H04to3way_H03_0" arrivalPos="85.60" arrivalSpeed="10.01" duration="29.00" routeLength="280.50" waitingTime="0.00" waitingCount="0" stopTime="0.00" timeLoss="4.10" rerouteNo="0" devices="tripinfo_113" vType="DEFAULT_VEHTYPE" speedFactor="0.81" vaporized=""/>
    <tripinfo id="118" depart="67.00" departLane="36_3way_D10to4way_D09_0" departPos="5.10" departSpeed="0.00" departDelay="0.92" arrival="93.00" arrivalLane="103_4way_E09to4way_F09_0" arrivalPos="85.60" arrivalSpeed="13.65" duration="26.00" routeLength="275.13" waitingTime="0.00" waitingCount="0" stopTime="0.00" timeLoss="5.79" rerouteNo="0" devices="tripinfo_118" vType="DEFAULT_VEHTYPE" speedFactor="1.04" vaporized=""/>
    <tripinfo id="147" depart="83.00" departLane="127_4way_G07to4way_G08_0" departPos="5.10" departSpeed="0.00" departDelay="0.68" arrival="93.00" arrivalLane="127_4way_G07to4way_G08_0" arrivalPos="85.60" arrivalSpeed="10.75" duration="10.00" routeLength="80.50" waitingTime="0.00" waitingCount="0" stopTime="0.00" timeLoss="2.83" rerouteNo="0" devices="tripinfo_147" vType="DEFAULT_VEHTYPE" speedFactor="0.82" vaporized=""/>
    <tripinfo id="66" depart="37.00" departLane="91_4way_E03to4way_E04_0" departPos="5.10" departSpeed="0.00" departDelay="0.04" arrival="94.00" arrivalLane="84_4way_E06to4way_D06_0" arrivalPos="85.60" arrivalSpeed="13.02" duration="57.00" routeLength="375.13" waitingTime="18.00" waitingCount="1" stopTime="0.00" timeLoss="28.18" rerouteNo="0" devices="tripinfo_66" vType="DEFAULT_VEHTYPE" speedFactor="0.98" vaporized=""/>
    <tripinfo id="13" depart="8.00" departLane="126_4way_G06to4way_G07_0" departPos="5.10" departSpeed="0.00" departDelay="0.72" arrival="95.00" arrivalLane="46_3way_G10to3way_F10_0" arrivalPos="85.60" arrivalSpeed="12.25" duration="87.00" routeLength="475.13" waitingTime="38.00" waitingCount="1" stopTime="0.00" timeLoss="50.31" rerouteNo="0" devices="tripinfo_13" vType="DEFAULT_VEHTYPE" speedFactor="0.96" vaporized=""/>
    <tripinfo id="72" depart="41.00" departLane="120_4way_G09to4way_F09_0" departPos="5.10" departSpeed="0.00" departDelay="0.68" arrival="95.00" arrivalLane="99_4way_E08to4way_E07_0" arrivalPos="85.60" arrivalSpeed="13.34" duration="54.00" routeLength="375.13" waitingTime="13.00" waitingCount="1" stopTime="0.00" timeLoss="26.19" rerouteNo="0" devices="tripinfo_72" vType="DEFAULT_VEHTYPE" speedFactor="1.01" vaporized=""/>
    <tripinfo id="136" depart="77.00" departLane="111_4way_F04to4way_G04_0" departPos="5.10" departSpeed="0.00" departDelay="0.84" arrival="96.00" arrivalLane="124_4way_G04to4way_G05_0" arrivalPos="85.60" arrivalSpeed="14.77" duration="19.00" routeLength="175.13" waitingTime="0.00" waitingCount="0" stopTime="0.00" timeLoss="6.45" rerouteNo="0" devices="tripinfo_136" vType="DEFAULT_VEHTYPE" speedFactor="1.08" vaporized=""/>
    <tripinfo id="157" depart="88.00" departLane="102_4way_E08to4way_F08_0" departPos="5.10" departSpeed="0.00" departDelay="0.08" arrival="97.00" arrivalLane="102_4way_E08to4way_F08_0" arrivalPos="85.60" arrivalSpeed="13.37" duration="9.00" routeLength="80.50" waitingTime="0.00" waitingCount="0" stopTime="0.00" timeLoss="2.91" rerouteNo="0" devices="tripinfo_157" vType="DEFAULT_VEHTYPE" speedFactor="1.03" vaporized=""/>
    <tripinfo id="88" depart="50.00" departLane="36_4way_D09to3way_D10_0" departPos="5.10" departSpeed="0.00" departDelay="0.72" arrival="99.00" arrivalLane="46_3way_F10to3way_G10_0" arrivalPos="85.60" arrivalSpeed="10.66" duration="49.00" routeLength="380.29" waitingTime="4.00" waitingCount="1" stopTime="0.00" timeLoss="12.93" rerouteNo="0" devices="tripinfo_88" vType="DEFAULT_VEHTYPE" speedFactor="0.79" vaporized=""/>
    <tripinfo id="161" depart="92.00" departLane="95_4way_E06to4way_E05_0" departPos="5.10" departSpeed="0.00" departDelay="1.84" arrival="101.00" arrivalLane="95_4way_E06to4way_E05_0" arrivalPos="85.60" arrivalSpeed="13.84" duration="9.00" routeLength="80.50" waitingTime="0.00" waitingCount="0" stopTime="0.00" timeLoss="2.72" rerouteNo="0" devices="tripinfo_161" vType="DEFAULT_VEHTYPE" speedFactor="1.03" vaporized=""/>
    <tripinfo id="48" depart="27.00" departLane="55_3way_H02to4way_G02_0" departPos="5.10" departSpeed="0.00" departDelay="0.12" arrival="103.00" arrivalLane="91_4way_E03to4way_E04_0" arrivalPos="85.60" arrivalSpeed="12.78" duration="76.00" routeLength="480.29" waitingTime="27.00" waitingCount="1" stopTime="0.00" timeLoss="38.73" rerouteNo="0" devices="tripinfo_48" vType="DEFAULT_VEHTYPE" speedFactor="0.95" vaporized=""/>
    <tripinfo id="165" depart="93.00" departLane="106_4way_F02to4way_F03_0" departPos="5.10" departSpeed="0.00" departDelay="0.60" arrival="103.00" arrivalLane="106_4way_F02to4way_F03_0" arrivalPos="85.60" arrivalSpeed="10.85" duration="10.00" routeLength="80.50" waitingTime="0.00" waitingCount="0" stopTime="0.00" timeLoss="2.85" rerouteNo="0" devices="tripinfo_165" vType="DEFAULT_VEHTYPE" speedFactor="0.87" vaporized=""/>
    <tripinfo id="154" depart="87.00" departLane="12_3way_B10to3way_A09_0" departPos="5.10" departSpeed="0.00" departDelay="0.76" arrival="104.00" arrivalLane="12_3way_B10to3way_A09_0" arrivalPos="182.40" arrivalSpeed="12.58" duration="17.00" routeLength="177.30" waitingTime="0.00" waitingCount="0" stopTime="0.00" timeLoss="3.45" rerouteNo="0" devices="tripinfo_154" vType="DEFAULT_VEHTYPE" speedFactor="0.96" vaporized=""/>
    <tripinfo id="174" depart="98.00" departLane="74_4way_C09to4way_B09_0" departPos="5.10" departSpeed="0.00" departDelay="0.56" arrival="107.00" arrivalLane="74_4way_C09to4way_B09_0" arrivalPos="85.60" arrivalSpeed="12.26" duration="9.00" routeLength="80.50" waitingTime="0.00" waitingCount="0" stopTime="0.00" timeLoss="2.81" rerouteNo="0" devices="tripinfo_174" vType="DEFAULT_VEHTYPE" speedFactor="0.95" vaporized=""/>
    <tripinfo id="179" depart="101.00" departLane="23_3way_C04to4way_D04_0" departPos="5.10" departSpeed="0.00" departDelay="0.76" arrival="111.00" arrivalLane="23_3way_C04to4way_D04_0" arrivalPos="85.60" arrivalSpeed="10.70" duration="10.00" routeLength="80.50" waitingTime="0.00" waitingCount="0" stopTime="0.00" timeLoss="2.34" rerouteNo="0" devices="tripinfo_179" vType="DEFAULT_VEHTYPE" speedFactor="0.81" vaporized=""/>
    <tripinfo id="21" depart="12.00" departLane="43_3way_E10to4way_E09_0" departPos="5.10" departSpeed="0.00" departDelay="0.24" arrival="113.00" arrivalLane="62_3way_H07to3way_H06_0" arrivalPos="85.60" arrivalSpeed="12.97" duration="101.00" routeLength="674.92" waitingTime="35.00" waitingCount="1" stopTime="0.00" timeLoss="48.37" rerouteNo="0" devices="tripinfo_21" vType="DEFAULT_VEHTYPE" speedFactor="0.96" vaporized=""/>
    <tripinfo id="184" depart="104.00" departLane="90_4way_E01to4way_F01_0" departPos="5.10" departSpeed="0.00" departDelay="0.96" arrival="114.00" arrivalLane="90_4way_E01to4way_F01_0" arrivalPos="85.60" arrivalSpeed="12.53" duration="10.00" routeLength="80.50" waitingTime="0.00" waitingCount="0" stopTime="0.00" timeLoss="3.12" rerouteNo="0" devices="tripinfo_184" vType="DEFAULT_VEHTYPE" speedFactor="0.95" vaporized=""/>
    <tripinfo id="29" depart="17.00" departLane="43_3way_E10to4way_E09_0" departPos="5.10" departSpeed="0.00" departDelay="0.76" arrival="115.00" arrivalLane="91_4way_E04to4way_E03_0" arrivalPos="85.60" arrivalSpeed="11.53" duration="98.00" routeLength="680.50" waitingTime="31.00" waitingCount="1" stopTime="0.00" timeLoss="43.17" rerouteNo="0" devices="tripinfo_29" vType="DEFAULT_VEHTYPE" speedFactor="0.90" vaporized=""/>
    <tripinfo id="206" depart="116.00" departLane="36_4way_D09to3way_D10_0" departPos="5.10" departSpeed="0.00" departDelay="0.64" arrival="126.00" arrivalLane="36_4way_D09to3way_D10_0" arrivalPos="85.60" arrivalSpeed="12.24" duration="10.00" routeLength="80.50" waitingTime="0.00" waitingCount="0" stopTime="0.00" timeLoss="2.67" rerouteNo="0" devices="tripinfo_206" vType="DEFAULT_VEHTYPE" speedFactor="0.89" vaporized=""/>
    <tripinfo id="207" depart="116.00" departLane="128_4way_G09to4way_G08_0" departPos="5.10" departSpeed="0.00" departDelay="0.08" arrival="126.00" arrivalLane="128_4way_G09to4way_G08_0" arrivalPos="85.60" arrivalSpeed="13.32" duration="10.00" routeLength="80.50" waitingTime="0.00" waitingCount="0" stopTime="0.00" timeLoss="3.85" rerouteNo="0" devices="tripinfo_207" vType="DEFAULT_VEHTYPE" speedFactor="1.05" vaporized=""/>
    <tripinfo id="182" depart="102.00" departLane="93_4way_E05to4way_E04_0" departPos="5.10" departSpeed="0.00" departDelay="0.08" arrival="139.00" arrivalLane="109_4way_F03to4way_G03_0" arrivalPos="85.60" arrivalSpeed="12.89" duration="37.00" routeLength="375.13" waitingTime="0.00" waitingCount="0" stopTime="0.00" timeLoss="7.98" rerouteNo="0" devices="tripinfo_182" vType="DEFAULT_VEHTYPE" speedFactor="0.97" vaporized=""/>
    <tripinfo id="186" depart="107.00" departLane="117_4way_G07to4way_F07_0" departPos="5.10" departSpeed="0.00" departDelay="2.84" arrival="141.00" arrivalLane="110_4way_F05to4way_F04_0" arrivalPos="85.60" arrivalSpeed="12.79" duration="34.00" routeLength="375.13" waitingTime="0.00" waitingCount="0" stopTime="0.00" timeLoss="5.83" rerouteNo="0" devices="tripinfo_186" vType="DEFAULT_VEHTYPE" speedFactor="0.98" vaporized=""/>
    <tripinfo id="204" depart="117.00" departLane="56_3way_H03to3way_H04_0" departPos="5.10" departSpeed="0.00" departDelay="2.76" arrival="147.00" arrivalLane="60_3way_H05to3way_H06_0" arrivalPos="85.60" arrivalSpeed="10.60" duration="30.00" routeLength="280.50" waitingTime="0.00" waitingCount="0" stopTime="0.00" timeLoss="4.33" rerouteNo="0" devices="tripinfo_204" vType="DEFAULT_VEHTYPE" speedFactor="0.81" vaporized=""/>
    <tripinfo id="248" depart="139.00" departLane="90_4way_F01to4way_E01_0" departPos="5.10" departSpeed="0.00" departDelay="0.12" arrival="156.00" arrivalLane="31_4way_E01to3way_D01_0" arrivalPos="85.60" arrivalSpeed="13.39" duration="17.00" routeLength="180.50" waitingTime="0.00" waitingCount="0" stopTime="0.00" timeLoss="3.15" rerouteNo="0" devices="tripinfo_248" vType="DEFAULT_VEHTYPE" speedFactor="0.99" vaporized=""/>
    <tripinfo id="265" depart="149.00" departLane="84_4way_E06to4way_D06_0" departPos="5.10" departSpeed="0.00" departDelay="0.60" arrival="159.00" arrivalLane="84_4way_E06to4way_D06_0" arrivalPos="85.60" arrivalSpeed="10.62" duration="10.00" routeLength="80.50" waitingTime="0.00" waitingCount="0" stopTime="0.00" timeLoss="2.59" rerouteNo="0" devices="tripinfo_265" vType="DEFAULT_VEHTYPE" speedFactor="0.83" vaporized=""/>
    <tripinfo id="268" depart="151.00" departLane="85_4way_D07to4way_D08_0" departPos="5.10" departSpeed="0.00" departDelay="0.92" arrival="160.00" arrivalLane="85_4way_D07to4way_D08_0" arrivalPos="85.60" arrivalSpeed="13.17" duration="9.00" routeLength="80.50" waitingTime="0.00" waitingCount="0" stopTime="0.00" timeLoss="2.72" rerouteNo="0" devices="tripinfo_268" vType="DEFAULT_VEHTYPE" speedFactor="0.95" vaporized=""/>
    <tripinfo id="259" depart="146.00" departLane="5_3way_B05to3way_A05_0" departPos="5.10" departSpeed="0.00" departDelay="0.96" arrival="165.00" arrivalLane="1_3way_A05to3way_A04_0" arrivalPos="85.60" arrivalSpeed="14.54" duration="19.00" routeLength="175.13" waitingTime="0.00" waitingCount="0" stopTime="0.00" timeLoss="6.28" rerouteNo="0" devices="tripinfo_259" vType="DEFAULT_VEHTYPE" speedFactor="1.05" vaporized=""/>
    <tripinfo id="262" depart="147.00" departLane="2_3way_B03to3way_A04_0" departPos="5.10" departSpeed="0.00" departDelay="0.28" arrival="176.00" arrivalLane="1_3way_A04to3way_A05_0" arrivalPos="85.60" arrivalSpeed="11.72" duration="29.00" routeLength="283.70" waitingTime="0.00" waitingCount="0" stopTime="0.00" timeLoss="4.18" rerouteNo="0" devices="tripinfo_262" vType="DEFAULT_VEHTYPE" speedFactor="0.85" vaporized=""/>
    <tripinfo id="281" depart="158.00" departLane="117_4way_G07to4way_F07_0" departPos="5.10" departSpeed="0.00" departDelay="0.64" arrival="177.00" arrivalLane="114_4way_F07to4way_F06_0" arrivalPos="85.60" arrivalSpeed="12.10" duration="19.00" routeLength="175.13" waitingTime="0.00" waitingCount="0" stopTime="0.00" timeLoss="4.66" rerouteNo="0" devices="tripinfo_281" vType="DEFAULT_VEHTYPE" speedFactor="0.96" vaporized=""/>
    <tripinfo id="290" depart="163.00" departLane="8_3way_A08to3way_A07_0" departPos="5.10" departSpeed="0.00" departDelay="0.60" arrival="180.00" arrivalLane="6_3way_A07to3way_A06_0" arrivalPos="85.60" arrivalSpeed="13.51" duration="17.00" routeLength="180.50" waitingTime="0.00" waitingCount="0" stopTime="0.00" timeLoss="3.51" rerouteNo="0" devices="tripinfo_290" vType="DEFAULT_VEHTYPE" speedFactor="1.01" vaporized=""/>
    <tripinfo id="299" depart="168.00" departLane="76_4way_C07to4way_D07_0" departPos="5.10" departSpeed="0.00" departDelay="0.56" arrival="186.00" arrivalLane="85_4way_D07to4way_D08_0" arrivalPos="85.60" arrivalSpeed="13.67" duration="18.00" routeLength="175.13" waitingTime="0.00" waitingCount="0" stopTime="0.00" timeLoss="4.89" rerouteNo="0" devices="tripinfo_299" vType="DEFAULT_VEHTYPE" speedFactor="1.01" vaporized=""/>
    <tripinfo id="9" depart="6.00" departLane="118_4way_F09to4way_F08_0" departPos="5.10" departSpeed="0.00" departDelay="0.96" arrival="190.00" arrivalLane="108_4way_F04to4way_F03_0" arrivalPos="85.60" arrivalSpeed="4.87" duration="184.00" routeLength="580.50" waitingTime="126.00" waitingCount="2" stopTime="0.00" timeLoss="140.60" rerouteNo="0" devices="tripinfo_9" vType="DEFAULT_VEHTYPE" speedFactor="0.96" vaporized=""/>
    <tripinfo id="35" depart="20.00" departLane="7_3way_A06to4way_B06_0" departPos="5.10" departSpeed="0.00" departDelay="0.40" arrival="190.00" arrivalLane="101_4way_E08to4way_E09_0" arrivalPos="85.60" arrivalSpeed="5.04" duration="170.00" routeLength="675.13" waitingTime="108.00" waitingCount="2" stopTime="0.00" timeLoss="125.47" rerouteNo="0" devices="tripinfo_35" vType="DEFAULT_VEHTYPE" speedFactor="1.11" vaporized=""/>