<?xml version="1.0" encoding="UTF-8"?>

<!-- generated on 2023-06-24 11:30:18 by Eclipse SUMO sumo Version 1.12.0
<configuration xmlns:xsi="http://www.w3.org/2001/XMLSchema-instance" xsi:noNamespaceSchemaLocation="http://sumo.dlr.de/xsd/sumoConfiguration.xsd">

    <input>
        <net-file value="../../data_generation/sq.net.xml"/>
        <route-files value="../../data_generation/sq.rou.xml"/>
    </input>

    <output>
        <tripinfo-output value="tripinfo.xml"/>
        <statistic-output value="statistic.xml"/>
    </output>

    <time>
        <begin value="0"/>
        <end value="3600"/>
    </time>

    <processing>
        <time-to-teleport value="-1"/>
    </processing>

    <traci_server>
        <remote-port value="51695"/>
    </traci_server>

    <random_number>
        <seed value="1395"/>
    </random_number>

    <gui_only>
        <gui-settings-file value="../../data_generation/view_HY_0402.xml"/>
    </gui_only>

</configuration>
-->

<tripinfos xmlns:xsi="http://www.w3.org/2001/XMLSchema-instance" xsi:noNamespaceSchemaLocation="http://sumo.dlr.de/xsd/tripinfo_file.xsd">
    <tripinfo id="22" depart="3.00" departLane="478_4way_291to4way_271_0" departPos="5.10" departSpeed="0.00" departDelay="0.36" arrival="20.00" arrivalLane="478_4way_291to4way_271_0" arrivalPos="185.60" arrivalSpeed="12.94" duration="17.00" routeLength="180.50" waitingTime="0.00" waitingCount="0" stopTime="0.00" timeLoss="3.71" rerouteNo="0" devices="tripinfo_22" vType="DEFAULT_VEHTYPE" speedFactor="1.00" vaporized=""/>
    <tripinfo id="9" depart="2.00" departLane="733_4way_76to4way_75_0" departPos="5.10" departSpeed="0.00" departDelay="0.92" arrival="37.00" arrivalLane="731_4way_75to4way_74_0" arrivalPos="185.60" arrivalSpeed="11.95" duration="35.00" routeLength="380.50" waitingTime="0.00" waitingCount="0" stopTime="0.00" timeLoss="4.18" rerouteNo="0" devices="tripinfo_9" vType="DEFAULT_VEHTYPE" speedFactor="0.91" vaporized=""/>
    <tripinfo id="160" depart="20.00" departLane="90_3way_382to4way_362_0" departPos="5.10" departSpeed="0.00" departDelay="0.80" arrival="39.00" arrivalLane="90_3way_382to4way_362_0" arrivalPos="185.60" arrivalSpeed="11.87" duration="19.00" routeLength="180.50" waitingTime="0.00" waitingCount="0" stopTime="0.00" timeLoss="3.43" rerouteNo="0" devices="tripinfo_160" vType="DEFAULT_VEHTYPE" speedFactor="0.88" vaporized=""/>
    <tripinfo id="167" depart="21.00" departLane="697_4way_54to4way_74_0" departPos="5.10" departSpeed="0.00" departDelay="0.96" arrival="40.00" arrivalLane="697_4way_54to4way_74_0" arrivalPos="185.60" arrivalSpeed="11.66" duration="19.00" routeLength="180.50" waitingTime="0.00" waitingCount="0" stopTime="0.00" timeLoss="3.72" rerouteNo="0" devices="tripinfo_167" vType="DEFAULT_VEHTYPE" speedFactor="0.85" vaporized=""/>
    <tripinfo id="198" depart="24.00" departLane="540_4way_324to4way_304_0" departPos="5.10" departSpeed="0.00" departDelay="0.24" arrival="43.00" arrivalLane="540_4way_324to4way_304_0" arrivalPos="185.60" arrivalSpeed="11.10" duration="19.00" routeLength="180.50" waitingTime="0.00" waitingCount="0" stopTime="0.00" timeLoss="3.59" rerouteNo="0" devices="tripinfo_198" vType="DEFAULT_VEHTYPE" speedFactor="0.87" vaporized=""/>
    <tripinfo id="148" depart="18.00" departLane="666_4way_375to4way_376_0" departPos="5.10" departSpeed="0.00" departDelay="0.24" arrival="51.00" arrivalLane="120_4way_376to3way_396_0" arrivalPos="185.60" arrivalSpeed="13.89" duration="33.00" routeLength="380.30" waitingTime="0.00" waitingCount="0" stopTime="0.00" timeLoss="6.08" rerouteNo="0" devices="tripinfo_148" vType="DEFAULT_VEHTYPE" speedFactor="1.07" vaporized=""/>
    <tripinfo id="303" depart="37.00" departLane="148_4way_102to4way_103_0" departPos="5.10" departSpeed="0.00" departDelay="0.64" arrival="55.00" arrivalLane="148_4way_102to4way_103_0" arrivalPos="185.60" arrivalSpeed="13.71" duration="18.00" routeLength="180.50" waitingTime="0.00" waitingCount="0" stopTime="0.00" timeLoss="4.41" rerouteNo="0" devices="tripinfo_303" vType="DEFAULT_VEHTYPE" speedFactor="1.02" vaporized=""/>
    <tripinfo id="127" depart="16.00" departLane="78_3way_339to4way_338_0" departPos="5.10" departSpeed="0.00" departDelay="0.76" arrival="63.00" arrivalLane="604_4way_337to4way_336_0" arrivalPos="185.60" arrivalSpeed="13.37" duration="47.00" routeLength="580.50" waitingTime="0.00" waitingCount="0" stopTime="0.00" timeLoss="4.85" rerouteNo="0" devices="tripinfo_127" vType="DEFAULT_VEHTYPE" speedFactor="1.00" vaporized=""/>
    <tripinfo id="118" depart="15.00" departLane="745_4way_87to4way_86_0" departPos="5.10" departSpeed="0.00" departDelay="0.84" arrival="65.00" arrivalLane="159_4way_85to4way_105_0" arrivalPos="185.60" arrivalSpeed="14.06" duration="50.00" routeLength="575.13" waitingTime="0.00" waitingCount="0" stopTime="0.00" timeLoss="9.19" rerouteNo="0" devices="tripinfo_118" vType="DEFAULT_VEHTYPE" speedFactor="1.05" vaporized=""/>
    <tripinfo id="158" depart="19.00" departLane="166_4way_109to4way_108_0" departPos="5.10" departSpeed="0.00" departDelay="0.04" arrival="68.00" arrivalLane="160_4way_107to4way_106_0" arrivalPos="185.60" arrivalSpeed="12.90" duration="49.00" routeLength="580.50" waitingTime="0.00" waitingCount="0" stopTime="0.00" timeLoss="5.01" rerouteNo="0" devices="tripinfo_158" vType="DEFAULT_VEHTYPE" speedFactor="0.96" vaporized=""/>
    <tripinfo id="332" depart="40.00" departLane="542_4way_305to4way_325_0" departPos="5.10" departSpeed="0.00" departDelay="0.16" arrival="70.00" arrivalLane="542_4way_305to4way_325_0" arrivalPos="185.60" arrivalSpeed="5.08" duration="30.00" routeLength="180.50" waitingTime="8.00" waitingCount="1" stopTime="0.00" timeLoss="14.39" rerouteNo="0" devices="tripinfo_332" vType="DEFAULT_VEHTYPE" speedFactor="0.83" vaporized=""/>
    <tripinfo id="445" depart="54.00" departLane="465_4way_267to4way_266_0" departPos="5.10" departSpeed="0.00" departDelay="0.60" arrival="71.00" arrivalLane="465_4way_267to4way_266_0" arrivalPos="185.60" arrivalSpeed="13.62" duration="17.00" routeLength="180.50" waitingTime="0.00" waitingCount="0" stopTime="0.00" timeLoss="4.08" rerouteNo="0" devices="tripinfo_445" vType="DEFAULT_VEHTYPE" speedFactor="1.02" vaporized=""/>
    <tripinfo id="326" depart="40.00" departLane="18_3way_120to4way_121_0" departPos="5.10" departSpeed="0.00" departDelay="0.88" arrival="72.00" arrivalLane="198_4way_121to4way_122_0" arrivalPos="185.60" arrivalSpeed="13.69" duration="32.00" routeLength="380.50" waitingTime="0.00" waitingCount="0" stopTime="0.00" timeLoss="3.92" rerouteNo="0" devices="tripinfo_326" vType="DEFAULT_VEHTYPE" speedFactor="1.00" vaporized=""/>
    <tripinfo id="258" depart="31.00" departLane="342_4way_204to4way_203_0" departPos="5.10" departSpeed="0.00" departDelay="0.04" arrival="74.00" arrivalLane="338_4way_202to4way_201_0" arrivalPos="185.60" arrivalSpeed="14.59" duration="43.00" routeLength="580.50" waitingTime="0.00" waitingCount="0" stopTime="0.00" timeLoss="4.90" rerouteNo="0" devices="tripinfo_258" vType="DEFAULT_VEHTYPE" speedFactor="1.12" vaporized=""/>
    <tripinfo id="203" depart="25.00" departLane="707_4way_62to4way_63_0" departPos="5.10" departSpeed="0.00" departDelay="0.64" arrival="77.00" arrivalLane="712_4way_64to4way_84_0" arrivalPos="185.60" arrivalSpeed="12.16" duration="52.00" routeLength="580.30" waitingTime="0.00" waitingCount="0" stopTime="0.00" timeLoss="6.51" rerouteNo="0" devices="tripinfo_203" vType="DEFAULT_VEHTYPE" speedFactor="0.95" vaporized=""/>
    <tripinfo id="217" depart="27.00" departLane="208_4way_126to4way_127_0" departPos="5.10" departSpeed="0.00" departDelay="0.96" arrival="77.00" arrivalLane="213_4way_128to4way_148_0" arrivalPos="185.60" arrivalSpeed="14.77" duration="50.00" routeLength="580.30" waitingTime="3.00" waitingCount="1" stopTime="0.00" timeLoss="11.85" rerouteNo="0" devices="tripinfo_217" vType="DEFAULT_VEHTYPE" speedFactor="1.12" vaporized=""/>
    <tripinfo id="115" depart="14.00" departLane="455_4way_261to4way_262_0" departPos="5.10" departSpeed="0.00" departDelay="0.20" arrival="86.00" arrivalLane="380_4way_242to4way_222_0" arrivalPos="185.60" arrivalSpeed="11.97" duration="72.00" routeLength="575