<?xml version="1.0" encoding="UTF-8"?>

<!-- generated on 2023-07-28 02:34:40 by Eclipse SUMO sumo Version 1.12.0
<configuration xmlns:xsi="http://www.w3.org/2001/XMLSchema-instance" xsi:noNamespaceSchemaLocation="http://sumo.dlr.de/xsd/sumoConfiguration.xsd">

    <input>
        <net-file value="../../data_generation/sq.net.xml"/>
        <route-files value="../../data_generation/sq.rou.xml"/>
    </input>

    <output>
        <tripinfo-output value="tripinfo.xml"/>
        <statistic-output value="statistic.xml"/>
    </output>

    <time>
        <begin value="0"/>
        <end value="3600"/>
    </time>

    <processing>
        <time-to-teleport value="-1"/>
    </processing>

    <traci_server>
        <remote-port value="50735"/>
    </traci_server>

    <random_number>
        <seed value="1395"/>
    </random_number>

    <gui_only>
        <gui-settings-file value="../../data_generation/view_HY_0402.xml"/>
    </gui_only>

</configuration>
-->

<tripinfos xmlns:xsi="http://www.w3.org/2001/XMLSchema-instance" xsi:noNamespaceSchemaLocation="http://sumo.dlr.de/xsd/tripinfo_file.xsd">
    <tripinfo id="15" depart="4.00" departLane="80_4way_9to4way_8_0" departPos="5.10" departSpeed="0.00" departDelay="0.43" arrival="13.00" arrivalLane="80_4way_9to4way_8_0" arrivalPos="85.60" arrivalSpeed="14.22" duration="9.00" routeLength="80.50" waitingTime="0.00" waitingCount="0" stopTime="0.00" timeLoss="3.21" rerouteNo="0" devices="tripinfo_15" vType="DEFAULT_VEHTYPE" speedFactor="1.05" vaporized=""/>
    <tripinfo id="12" depart="3.00" departLane="17_4way_26to3way_27_0" departPos="5.10" departSpeed="0.00" departDelay="0.14" arrival="21.00" arrivalLane="12_3way_27to3way_20_0" arrivalPos="85.60" arrivalSpeed="15.26" duration="18.00" routeLength="175.13" waitingTime="0.00" waitingCount="0" stopTime="0.00" timeLoss="5.77" rerouteNo="0" devices="tripinfo_12" vType="DEFAULT_VEHTYPE" speedFactor="1.16" vaporized=""/>
    <tripinfo id="14" depart="4.00" departLane="35_4way_38to3way_45_0" departPos="5.10" departSpeed="0.00" departDelay="0.67" arrival="23.00" arrivalLane="34_3way_45to3way_46_0" arrivalPos="85.60" arrivalSpeed="12.94" duration="19.00" routeLength="175.13" waitingTime="0.00" waitingCount="0" stopTime="0.00" timeLoss="4.73" rerouteNo="0" devices="tripinfo_14" vType="DEFAULT_VEHTYPE" speedFactor="0.95" vaporized=""/>
    <tripinfo id="19" depart="5.00" departLane="21_3way_3to4way_10_0" departPos="5.10" departSpeed="0.00" departDelay="0.48" arrival="24.00" arrivalLane="42_4way_10to4way_17_0" arrivalPos="85.60" arrivalSpeed="11.96" duration="19.00" routeLength="180.50" waitingTime="0.00" waitingCount="0" stopTime="0.00" timeLoss="3.62" rerouteNo="0" devices="tripinfo_19" vType="DEFAULT_VEHTYPE" speedFactor="0.89" vaporized=""/>
    <tripinfo id="64" depart="16.00" departLane="52_4way_16to4way_9_0" departPos="5.10" departSpeed="0.00" departDelay="0.77" arrival="26.00" arrivalLane="52_4way_16to4way_9_0" arrivalPos="85.60" arrivalSpeed="13.32" duration="10.00" routeLength="80.50" waitingTime="0.00" waitingCount="0" stopTime="0.00" timeLoss="3.27" rerouteNo="0" devices="tripinfo_64" vType="DEFAULT_VEHTYPE" speedFactor="0.96" vaporized=""/>
    <tripinfo id="38" depart="10.00" departLane="42_4way_17to4way_10_0" departPos="5.10" departSpeed="0.00" departDelay="0.96" arrival="27.00" arrivalLane="21_4way_10to3way_3_0" arrivalPos="85.60" arrivalSpeed="13.31" duration="17.00" routeLength="180.50" waitingTime="0.00" waitingCount="0" stopTime="0.00" timeLoss="3.24" rerouteNo="0" devices="tripinfo_38" vType="DEFAULT_VEHTYPE" speedFactor="1.00" vaporized=""/>
    <tripinfo id="69" depart="17.00" departLane="53_4way_17to4way_18_0" departPos="5.10" departSpeed="0.00" departDelay="0.58" arrival="27.00" arrivalLane="53_4way_17to4way_18_0" arrivalPos="85.60" arrivalSpeed="10.91" duration="10.00" routeLength="80.50" waitingTime="0.00" waitingCount="0" stopTime="0.00" timeLoss="2.75" rerouteNo="0" devices="tripinfo_69" vType="DEFAULT_VEHTYPE" speedFactor="0.82" vaporized=""/>
    <tripinfo id="61" depart="18.00" departLane="33_3way_44to4way_37_0" departPos="5.10" departSpeed="0.00" departDelay="3.48" arrival="28.00" arrivalLane="33_3way_44to4way_37_0" arrivalPos="85.60" arrivalSpeed="13.27" duration="10.00" routeLength="80.50" waitingTime="0.00" waitingCount="0" stopTime="0.00" timeLoss="3.32" rerouteNo="0" devices="tripinfo_61" vType="DEFAULT_VEHTYPE" speedFactor="1.01" vaporized=""/>
    <tripinfo id="79" depart="21.00" departLane="73_4way_32to4way_33_0" departPos="5.10" departSpeed="0.00" departDelay="2.20" arrival="31.00" arrivalLane="73_4way_32to4way_33_0" arrivalPos="85.60" arrivalSpeed="11.38" duration="10.00" routeLength="80.50" waitingTime="0.00" waitingCount="0" stopTime="0.00" timeLoss="3.27" rerouteNo="0" devices="tripinfo_79" vType="DEFAULT_VEHTYPE" speedFactor="0.90" vaporized=""/>
    <tripinfo id="21" depart="5.00" departLane="18_3way_28to3way_35_0" departPos="5.10" departSpeed="0.00" departDelay="0.00" arrival="33.00" arrivalLane="24_3way_35to3way_43_0" arrivalPos="182.40" arrivalSpeed="10.85" duration="28.00" routeLength="277.30" waitingTime="0.00" waitingCount="0" stopTime="0.00" timeLoss="3.40" rerouteNo="0" devices="tripinfo_21" vType="DEFAULT_VEHTYPE" speedFactor="0.82" vaporized=""/>
    <tripinfo id="95" depart="23.00" departLane="36_3way_46to3way_47_0" departPos="5.10" departSpeed="0.00" departDelay="0.39" arrival="33.00" arrivalLane="36_3way_46to3way_47_0" arrivalPos="85.60" arrivalSpeed="12.09" duration="10.00" routeLength="80.50" waitingTime="0.00" waitingCount="0" stopTime="0.00" timeLoss="2.72" rerouteNo="0" devices="tripinfo_95" vType="DEFAULT_VEHTYPE" speedFactor="0.88" vaporized=""/>
    <tripinfo id="102" depart="25.00" departLane="29_3way_41to4way_40_0" departPos="5.10" departSpeed="0.00" departDelay="0.72" arrival="35.00" arrivalLane="29_3way_41to4way_40_0" arrivalPos="85.60" arrivalSpeed="14.10" duration="10.00" routeLength="80.50" waitingTime="0.00" waitingCount="0" stopTime="0.00" timeLoss="3.78" rerouteNo="0" devices="tripinfo_102" vType="DEFAULT_VEHTYPE" speedFactor="1.05" vaporized=""/>
    <tripinfo id="70" depart="17.00" departLane="46_4way_19to4way_12_0" departPos="5.10" departSpeed="0.00" departDelay="0.34" arrival="38.00" arrivalLane="39_4way_12to3way_5_0" arrivalPos="85.60" arrivalSpeed="10.04" duration="21.00" routeLength="180.50" waitingTime="0.00" waitingCount="0" stopTime="0.00" timeLoss="3.40" rerouteNo="0" devices="tripinfo_70" vType="DEFAULT_VEHTYPE" speedFactor="0.75" vaporized=""/>
    <tripinfo id="100" depart="24.00" departLane="80_4way_8to4way_9_0" departPos="5.10" departSpeed="0.00" departDelay="0.20" arrival="40.00" arrivalLane="43_4way_9to4way_10_0" arrivalPos="85.60" arrivalSpeed="16.12" duration="16.00" routeLength="180.50" waitingTime="0.00" waitingCount="0" stopTime="0.00" timeLoss="4.29" rerouteNo="0" devices="tripinfo_100" vType="DEFAULT_VEHTYPE" speedFactor="1.20" vaporized=""/>
    <tripinfo id="123" depart="30.00" departLane="72_4way_31to4way_38_0" departPos="5.10" departSpeed="0.00" departDelay="0.73" arrival="40.00" arrivalLane="72_4way_31to4way_38_0" arrivalPos="85.60" arrivalSpeed="14.30" duration="10.00" routeLength="80.50" waitingTime="0.00" waitingCount="0" stopTime="0.00" timeLoss="3.59" rerouteNo="0" devices="tripinfo_123" vType="DEFAULT_VEHTYPE" speedFactor="1.06" vaporized=""/>
    <tripinfo id="159" depart="38.00" departLane="42_4way_17to4way_10_0" departPos="5.10" departSpeed="0.00" departDelay="0.16" arrival="47.00" arrivalLane="42_4way_17to4way_10_0" arrivalPos="85.60" arrivalSpeed="13.20" duration="9.00" routeLength="80.50" waitingTime="0.00" waitingCount="0" stopTime="0.00" timeLoss="3.08" rerouteNo="0" devices="tripinfo_159" vType="DEFAULT_VEHTYPE" speedFactor="0.99" vaporized=""/>
    <tripinfo id="152" depart="38.00" departLane="26_3way_5to3way_4_0" departPos="5.10" departSpeed="0.00" departDelay="1.82" arrival="48.00" arrivalLane="26_3way_5to3way_4_0" arrivalPos="85.60" arrivalSpeed="11.86" duration="10.00" routeLength="80.50" waitingTime="0.00" waitingCount="0" stopTime="0.00" timeLoss="2.62" rerouteNo="0" devices="tripinfo_152" vType="DEFAULT_VEHTYPE" speedFactor="0.89" vaporized=""/>
    <tripinfo id="62" depart="15.00" departLane="8_3way_7to3way_14_0" departPos="5.10" departSpeed="0.00" departDelay="0.24" arrival="49.00" arrivalLane="58_4way_22to4way_23_0" arrivalPos="85.60" arrivalSpeed="13.97" duration="34.00" routeLength="375.13" waitingTime="0.00" waitingCount="0" stopTime="0.00" timeLoss="6.65" rerouteNo="0" devices="tripinfo_62" vType="DEFAULT_VEHTYPE" speedFactor="1.05" vaporized=""/>
    <tripinfo id="56" depart="16.00" departLane="54_4way_17to4way_24_0" departPos="5.10" departSpeed="0.00" departDelay="2.67" arrival="50.00" arrivalLane="78_4way_38to4way_39_0" arrivalPos="85.60" arrivalSpeed="13.70" duration="34.00" routeLength="375.13" waitingTime="0.00" waitingCount="0" stopTime="0.00" timeLoss="6.76" rerouteNo="0" devices="tripinfo_56" vType="DEFAULT_VEHTYPE" speedFactor="1.02" vaporized=""/>
    <tripinfo id="2" depart="1.00" departLane="70_4way_37to4way_30_0" departPos="5.10" departSpeed="0.00" departDelay="0.52" arrival="53.00" arrivalLane="8_3way_14to3way_7_0" arrivalPos="85.60" arrivalSpeed="10.41" duration="52.00" routeLength="574.92" waitingTime="0.00" waitingCount="0" stopTime="0.00" timeLoss="10.65" rerouteNo="0" devices="tripinfo_2" vType="DEFAULT_VEHTYPE" speedFactor="1.04" vaporized=""/>
    <tripinfo id="47" depart="12.00" departLane="35_3way_45to4way_38_0" departPos="5.10" departSpeed="0.00" departDelay="0.81" arrival="56.00" arrivalLane="42_4way_17to4way_10_0" arrivalPos="85.60" arrivalSpeed="12.00" duration="44.00" routeLength="480.50" waitingTime="0.00" waitingCount="0" stopTime="0.00" timeLoss="4.63" rerouteNo="0" devices="tripinfo_47" vType="DEFAULT_VEHTYPE" speedFactor="0.90" vaporized=""/>
    <tripinfo id="112" depart="28.00" departLane="29_3way_41to4way_40_0" departPos="5.10" departSpeed="0.00" departDelay="1.34" arrival="56.00" arrivalLane="37_4way_39to3way_46_0" arrivalPos="85.60" arrivalSpeed="12.61" duration="28.00" routeLength="275.13" waitingTime="0.00" waitingCount="0" stopTime="0.00" timeLoss="5.87" rerouteNo="0" devices="tripinfo_112" vType="DEFAULT_VEHTYPE" speedFactor="0.95" vaporized=""/>
    <tripinfo id="194" depart="47.00" departLane="18_3way_28to3way_35_0" departPos="5.10" departSpeed="0.00" departDelay="0.83" arrival="56.00" arrivalLane="18_3way_28to3way_35_0" arrivalPos="85.60" arrivalSpeed="14.64" duration="9.00" routeLength="80.50" waitingTime="0.00" waitingCount="0" stopTime="0.00" timeLoss="3.50" rerouteNo="0" devices="tripinfo_194" vType="DEFAULT_VEHTYPE" speedFactor="1.10" vaporized=""/>
    <tripinfo id="155" depart="37.00" departLane="63_4way_24to4way_31_0" departPos="5.10" departSpeed="0.00" departDelay="0.11" arrival="57.00" arrivalLane="71_4way_31to4way_32_0" arrivalPos="85.60" arrivalSpeed="12.08" duration="20.00" routeLength="175.13" waitingTime="0.00" waitingCount="0" stopTime="0.00" timeLoss="5.64" rerouteNo="0" devices="tripinfo_155" vType="DEFAULT_VEHTYPE" speedFactor="0.94" vaporized=""/>
    <tripinfo id="162" depart="41.00" departLane="42_4way_17to4way_10_0" departPos="5.10" departSpeed="0.00" departDelay="2.44" arrival="59.00" arrivalLane="21_4way_10to3way_3_0" arrivalPos="85.60" arrivalSpeed="12.46" duration="18.00" routeLength="180.50" waitingTime="0.00" waitingCount="0" stopTime="0.00" timeLoss="3.65" rerouteNo="0" devices="tripinfo_162" vType="DEFAULT_VEHTYPE" speedFactor="0.96" vaporized=""/>
    <tripinfo id="182" depart="44.00" departLane="70_4way_30to4way_37_0" departPos="5.10" departSpeed="0.00" departDelay="0.68" arrival="64.00" arrivalLane="77_4way_37to4way_38_0" arrivalPos="85.60" arrivalSpeed="12.36" duration="20.00" routeLength="175.13" waitingTime="0.00" waitingCount="0" stopTime="0.00" timeLoss="5.32" rerouteNo="0" devices="tripinfo_182" vType="DEFAULT_VEHTYPE" speedFactor="0.90" vaporized=""/>
    <tripinfo id="188" depart="45.00" departLane="44_4way_12to4way_11_0" departPos="5.10" departSpeed="0.00" departDelay="0.26" arrival="65.00" arrivalLane="45_4way_11to4way_18_0" arrivalPos="85.60" arrivalSpeed="12.85" duration="20.00" routeLength="175.13" waitingTime="0.00" waitingCount="0" stopTime="0.00" timeLoss="6.31" rerouteNo="0" devices="tripinfo_188" vType="DEFAULT_VEHTYPE" speedFactor="1.00" vaporized=""/>
    <tripinfo id="169" depart="41.00" departLane="33_3way_44to4way_37_0" departPos="5.10" departSpeed="0.00" departDelay="0.78" arrival="66.00" arrivalLane="67_4way_30to4way_29_0" arrivalPos="85.60" arrivalSpeed="14.34" duration="25.00" routeLength="275.13" waitingTime="0.00" waitingCount="0" stopTime="0.00" timeLoss="5.85" rerouteNo="0" devices="tripinfo_169" vType="DEFAULT_VEHTYPE" speedFactor="1.09" vaporized=""/>
    <tripinfo id="201" depart="49.00" departLane="2_3way_7to3way_1_0" departPos="5.10" departSpeed="0.00" departDelay="1.16" arrival="67.00" arrivalLane="2_3way_7to3way_1_0" arrivalPos="188.80" arrivalSpeed="11.90" duration="18.00" routeLength="183.70" waitingTime="0.00" waitingCount="0" stopTime="0.00" timeLoss="3.41" rerouteNo="0" devices="tripinfo_201" vType="DEFAULT_VEHTYPE" speedFactor="0.93" vaporized=""/>
    <tripinfo id="17" depart="5.00" departLane="42_4way_10to4way_17_0" departPos="5.10" departSpeed="0.00" departDelay="0.95" arrival="70.00" arrivalLane="64_4way_25to4way_26_0" arrivalPos="85.60" arrivalSpeed="5.97" duration="65.00" routeLength="375.13" waitingTime="28.00" waitingCount="1" stopTime="0.00" timeLoss="38.19" rerouteNo="0" devices="tripinfo_17" vType="DEFAULT_VEHTYPE" speedFactor="1.04" vaporized=""/>
    <tripinfo id="50" depart="15.00" departLane="52_4way_9to4way_16_0" departPos="5.10" departSpeed="0.00" departDelay="3.10" arrival="70.00" arrivalLane="52_4way_9to4way_16_0" arrivalPos="85.60" arrivalSpeed="5.69" duration="55.00" routeLength="80.50" waitingTime="41.00" waitingCount="1" stopTime="0.00" timeLoss="49.13" rerouteNo="0" devices="tripinfo_50" vType="DEFAULT_VEHTYPE" speedFactor="1.01" vaporized=""/>
    <tripinfo id="132" depart="32.00" departLane="79_4way_39to4way_40_0" departPos="5.10" departSpeed="0.00" departDelay="0.58" arrival="70.00" arrivalLane="75_4way_40to4way_33_0" arrivalPos="85.60" arrivalSpeed="5.07" duration="38.00" routeLength="175.13" waitingTime="13.00" waitingCount="1" stopTime="0.00" timeLoss="22.85" rerouteNo="0" devices="tripinfo_132" vType="DEFAULT_VEHTYPE" speedFactor="0.86" vaporized=""/>
    <tripinfo id="149" depart="36.00" departLane="20_3way_3to3way_4_0" departPos="5.10" departSpeed="0.00" departDelay="0.54" arrival="70.00" arrivalLane="5_3way_5to3way_13_0" arrivalPos="188.80" arrivalSpeed="12.52" duration="34.00" routeLength="383.70" waitingTime="0.00" waitingCount="0" stopTime="0.00" timeLoss="4.34" rerouteNo="0" devices="tripinfo_149" vType="DEFAULT_VEHTYPE" speedFactor="0.95" vaporized=""/>
    <tripinfo id="80" depart="20.00" departLane="14_3way_28to3way_21_0" departPos="5.10" departSpeed="0.00" departDelay="0.96" arrival="72.00" arrivalLane="2_3way_7to3way_1_0" arrivalPos="188.80" arrivalSpeed="9.66" duration="52.00" routeLength="483.70" waitingTime="0.00" waitingCount="0" stopTime="0.00" timeLoss="6.65" rerouteNo="0" devices="tripinfo_80" vType="DEFAULT_VEHTYPE" speedFactor="0.78" vaporized=""/>
    <tripinfo id="57" depart="14.00" departLane="58_4way_22to4way_23_0" departPos="5.10" departSpeed="0.00" departDelay="0.43" arrival="73.00" arrivalLane="60_4way_23to4way_24_0" arrivalPos="85.60" arrivalSpeed="8.69" duration="59.00" routeLength="180.50" waitingTime="34.00" waitingCount="1" stopTime="0.00" timeLoss="45.00" rerouteNo="0" devices="tripinfo_57" vType="DEFAULT_VEHTYPE" speedFactor="0.97" vaporized=""/>
    <tripinfo id="111" depart="27.00" departLane="62_4way_24to4way_25_0" departPos="5.10" departSpeed="0.00" departDelay="0.58" arrival="73.00" arrivalLane="64_4way_25to4way_26_0" arrivalPos="85.60" arrivalSpeed="9.08" duration="46.00" routeLength="180.50" waitingTime="21.00" waitingCount="1" stopTime="0.00" timeLoss="29.82" rerouteNo="0" devices="tripinfo_111" vType="DEFAULT_VEHTYPE" speedFactor="0.84" vaporized=""/>
    <tripinfo id="99" depart="26.00" departLane="20_3way_4to3way_3_0" departPos="5.10" departSpeed="0.00" departDelay="2.44" arrival="74.00" arrivalLane="10_3way_3to3way_2_0" arrivalPos="85.60" arrivalSpeed="8.73" duration="48.00" routeLength="180.50" waitingTime="25.00" waitingCount="1" stopTime="0.00" timeLoss="34.55" rerouteNo="0" devices="tripinfo_99" vType="DEFAULT_VEHTYPE" speedFactor="0.97" vaporized=""/>
    <tripinfo id="269" depart="65.00" departLane="53_4way_18to4way_17_0" departPos="5.10" departSpeed="0.00" departDelay="0.98" arrival="74.00" arrivalLane="53_4way_18to4way_17_0" arrivalPos="85.60" arrivalSpeed="14.99" duration="9.00" routeLength="80.50" waitingTime="0.00" waitingCount="0" stopTime="0.00" timeLoss="3.50" rerouteNo="0" devices="tripinfo_269" vType="DEFAULT_VEHTYPE" speedFactor="1.11" vaporized=""/>
    <tripinfo id="18" depart="5.00" departLane="8_3way_7to3way_14_0" departPos="5.10" departSpeed="0.00" departDelay="0.72" arrival="75.00" arrivalLane="14_3way_21to3way_28_0" arrivalPos="85.60" arrivalSpeed="11.28" duration="70.00" routeLength="280.50" waitingTime="38.00" waitingCount="1" stopTime="0.00" timeLoss="48.07" rerouteNo="0" devices="tripinfo_18" vType="DEFAULT_VEHTYPE" speedFactor="0.96" vaporized=""/>
    <tripinfo id="206" depart="55.00" departLane="75_4way_40to4way_33_0" departPos="5.10" departSpeed="0.00" departDelay="5.97" arrival="75.00" arrivalLane="75_4way_40to4way_33_0" arrivalPos="85.60" arrivalSpeed="9.29" duration="20.00" routeLength="80.50" waitingTime="2.00" waitingCount="1" stopTime="0.00" timeLoss="13.41" rerouteNo="0" devices="tripinfo_206" vType="DEFAULT_VEHTYPE" speedFactor="0.92" vaporized=""/>
    <tripinfo id="192" depart="46.00" departLane="74_4way_32to4way_39_0" departPos="5.10" departSpeed="0.00" departDelay="0.30" arrival="76.00" arrivalLane="37_4way_39to3way_46_0" arrivalPos="85.60" arrivalSpeed="14.60" duration="30.00" routeLength="180.50" waitingTime="8.00" waitingCount="1" stopTime="0.00" timeLoss="18.20" rerouteNo="0" devices="tripinfo_192" vType="DEFAULT_VEHTYPE" speedFactor="1.12" vaporized=""/>
    <tripinfo id="277" depart="66.00" departLane="79_4way_39to4way_40_0" departPos="5.10" departSpeed="0.00" departDelay="0.07" arrival="76.00" arrivalLane="79_4way_39to4way_40_0" arrivalPos="85.60" arrivalSpeed="11.17" duration="10.00" routeLength="80.50" waitingTime="0.00" waitingCount="0" stopTime="0.00" timeLoss="3.37" rerouteNo="0" devices="tripinfo_277" vType="DEFAULT_VEHTYPE" speedFactor="0.88" vaporized=""/>
    <tripinfo id="24" depart="6.00" departLane="16_3way_27to3way_34_0" departPos="5.10" departSpeed="0.00" departDelay="0.29" arrival="77.00" arrivalLane="22_3way_34to3way_41_0" arrivalPos="85.60" arrivalSpeed="13.29" duration="71.00" routeLength="180.50" waitingTime="49.00" waitingCount="1" stopTime="0.00" timeLoss="56.86" rerouteNo="0" devices="tripinfo_24" vType="DEFAULT_VEHTYPE" speedFactor="0.97" vaporized=""/>
    <tripinfo id="97" depart="24.00" departLane="54_4way_17to4way_24_0" departPos="5.10" departSpeed="0.00" departDelay="0.91" arrival="77.00" arrivalLane="30_3way_44to3way_43_0" arrivalPos="85.60" arrivalSpeed="13.38" duration="53.00" routeLength="580.29" waitingTime="2.00" waitingCount="1" stopTime="0.00" timeLoss="12.50" rerouteNo="0" devices="tripinfo_97" vType="DEFAULT_VEHTYPE" speedFactor="1.06" vaporized=""/>
    <tripinfo id="247" depart="59.00" departLane="69_4way_31to4way_30_0" departPos="5.10" departSpeed="0.00" departDelay="0.21" arrival="77.00" arrivalLane="67_4way_30to4way_29_0" arrivalPos="85.60" arrivalSpeed="14.76" duration="18.00" routeLength="180.50" waitingTime="0.00" waitingCount="0" stopTime="0.00" timeLoss="5.74" rerouteNo="0" devices="tripinfo_247" vType="DEFAULT_VEHTYPE" speedFactor="1.07" vaporized=""/>
    <tripinfo id="267" depart="64.00" departLane="51_4way_16to4way_23_0" departPos="5.10" departSpeed="0.00" departDelay="0.45" arrival="77.00" arrivalLane="51_4way_16to4way_23_0" arrivalPos="85.60" arrivalSpeed="10.86" duration="13.00" routeLength="80.50" waitingTime="0.00" waitingCount="0" stopTime="0.00" timeLoss="7.31" rerouteNo="0" devices="tripinfo_267" vType="DEFAULT_VEHTYPE" speedFactor="1.11" vaporized=""/>
    <tripinfo id="22" depart="6.00" departLane="40_3way_7to4way_8_0" departPos="5.10" departSpeed="0.00" departDelay="0.76" arrival="78.00" arrivalLane="80_4way_8to4way_9_0" arrivalPos="85.60" arrivalSpeed="13.42" duration="72.00" routeLength="180.50" waitingTime="48.00" waitingCount="1" stopTime="0.00" timeLoss="58.11" rerouteNo="0" devices="tripinfo_22" vType="DEFAULT_VEHTYPE" speedFactor="1.00" vaporized=""/>
    <tripinfo id="48" depart="12.00" departLane="73_4way_33to4way_32_0" departPos="5.10" departSpeed="0.00" departDelay="0.58" arrival="78.00" arrivalLane="71_4way_32to4way_31_0" arrivalPos="85.60" arrivalSpeed="10.66" duration="66.00" routeLength="180.50" waitingTime="43.00" waitingCount="1" stopTime="0.00" timeLoss="50.21" rerouteNo="0" devices="tripinfo_48" vType="DEFAULT_VEHTYPE" speedFactor="0.83" vaporized=""/>
    <tripinfo id="107" depart="26.00" departLane="74_4way_39to4way_32_0" departPos="5.10" departSpeed="0.00" departDelay="0.53" arrival="78.00" arrivalLane="69_4way_31to4way_30_0" arrivalPos="85.60" arrivalSpeed="14.74" duration="52.00" routeLength="275.13" waitingTime="21.00" waitingCount="1" stopTime="0.00" timeLoss="33.49" rerouteNo="0" devices="tripinfo_107" vType="DEFAULT_VEHTYPE" speedFactor="1.10" vaporized=""/>
    <tripinfo id="13" depart="4.00" departLane="7_3way_14to3way_21_0" departPos="5.10" departSpeed="0.00" departDelay="0.91" arrival="79.00" arrivalLane="19_3way_28to4way_29_0" arrivalPos="85.60" arrivalSpeed="12.74" duration="75.00" routeLength="275.13" waitingTime="46.00" waitingCount="1" stopTime="0.00" timeLoss="53.74" rerouteNo="0" devices="tripinfo_13" vType="DEFAULT_VEHTYPE" speedFactor="0.98" vaporized=""/>
    <tripinfo id="93" depart="23.00" departLane="66_4way_26to4way_33_0" departPos="5.10" departSpeed="0.00" departDelay="0.87" arrival="79.00" arrivalLane="23_4way_33to3way_34_0" arrivalPos="85.60" arrivalSpeed="13.34" duration="56.00" routeLength="175.13" waitingTime="33.00" waitingCount="1" stopTime="0.00" timeLoss="42.31" rerouteNo="0" devices="tripinfo_93" vType="DEFAULT_VEHTYPE" speedFactor="1.00" vaporized=""/>
    <tripinfo id="119" depart="29.00" departLane="15_3way_21to4way_22_0" departPos="5.10" departSpeed="0.00" departDelay="0.68" arrival="79.00" arrivalLane="60_4way_23to4way_24_0" arrivalPos="85.60" arrivalSpeed="12.16" duration="50.00" routeLength="280.50" waitingTime="18.00" waitingCount="1" stopTime="0.00" timeLoss="26.74" rerouteNo="0" devices="tripinfo_119" vType="DEFAULT_VEHTYPE" speedFactor="0.90" vaporized=""/>
    <tripinfo id="289" depart="69.00" departLane="10_3way_3to3way_2_0" departPos="5.10" departSpeed="0.00" departDelay="0.22" arrival="80.00" arrivalLane="10_3way_3to3way_2_0" arrivalPos="85.60" arrivalSpeed="13.03" duration="11.00" routeLength="80.50" waitingTime="0.00" waitingCount="0" stopTime="0.00" timeLoss="4.89" rerouteNo="0" devices="tripinfo_289" vType="DEFAULT_VEHTYPE" speedFactor="1.03" vaporized=""/>
    <tripinfo id="27" depart="7.00" departLane="5_3way_5to3way_13_0" departPos="5.10" departSpeed="0.00" departDelay="0.57" arrival="81.00" arrivalLane="12_3way_20to3way_27_0" arrivalPos="85.60" arrivalSpeed="13.47" duration="74.00" routeLength="383.70" waitingTime="35.00" waitingCount="1" stopTime="0.00" timeLoss="46.73" rerouteNo="0" devices="tripinfo_27" vType="DEFAULT_VEHTYPE" speedFactor="1.03" vaporized=""/>
    <tripinfo id="136" depart="33.00" departLane="74_4way_39to4way_32_0" departPos="5.10" departSpeed="0.00" departDelay="0.63" arrival="81.00" arrivalLane="69_4way_31to4way_30_0" arrivalPos="85.60" arrivalSpeed="13.69" duration="48.00" routeLength="275.13" waitingTime="16.00" waitingCount="1" stopTime="0.00" timeLoss="27.05" rerouteNo="0" devices="tripinfo_136" vType="DEFAULT_VEHTYPE" speedFactor="1.01" vaporized=""/>
    <tripinfo id="191" depart="46.00" departLane="2_3way_7to3way_1_0" departPos="5.10" departSpeed="0.00" departDelay="0.54" arrival="81.00" arrivalLane="10_3way_2to3way_3_0" arrivalPos="85.60" arrivalSpeed="12.16" duration="35.00" routeLength="383.70" waitingTime="0.00" waitingCount="0" stopTime="0.00" timeLoss="5.04" rerouteNo="0" devices="tripinfo_191" vType="DEFAULT_VEHTYPE" speedFactor="0.94" vaporized=""/>
    <tripinfo id="109" depart="26.00" departLane="66_4way_26to4way_33_0" departPos="5.10" departSpeed="0.00" departDelay="0.06" arrival="82.00" arrivalLane="23_4way_33to3way_34_0" arrivalPos="85.60" arrivalSpeed="14.07" duration="56.00" routeLength="175.13" waitingTime="32.00" waitingCount="1" stopTime="0.00" timeLoss="42.57" rerouteNo="0" devices="tripinfo_109" vType="DEFAULT_VEHTYPE" speedFactor="1.04" vaporized=""/>
    <tripinfo id="65" depart="16.00" departLane="70_4way_37to4way_30_0" departPos="5.10" departSpeed="0.00" departDelay="0.53" arrival="83.00" arrivalLane="52_4way_16to4way_9_0" arrivalPos="85.60" arrivalSpeed="15.67" duration="67.00" routeLength="380.50" waitingTime="33.00" waitingCount="1" stopTime="0.00" timeLoss="43.63" rerouteNo="0" devices="tripinfo_65" vType="DEFAULT_VEHTYPE" speedFactor="1.20" vaporized=""/>
    <tripinfo id="141" depart="34.00" departLane="61_4way_30to4way_23_0" departPos="5.10" departSpeed="0.00" departDelay="0.44" arrival="83.00" arrivalLane="58_4way_23to4way_22_0" arrivalPos="85.60" arrivalSpeed="13.73" duration="49.00" routeLength="175.13" waitingTime="25.00" waitingCount="1" stopTime="0.00" timeLoss="34.67" rerouteNo="0" devices="tripinfo_141" vType="DEFAULT_VEHTYPE" speedFactor="0.99" vaporized=""/>
    <tripinfo id="227" depart="56.00" departLane="69_4way_31to4way_30_0" departPos="5.10" departSpeed="0.00" departDelay="1.97" arrival="83.00" arrivalLane="19_4way_29to3way_28_0" arrivalPos="85.60" arrivalSpeed="13.09" duration="27.00" routeLength="280.50" waitingTime="0.00" waitingCount="0" stopTime="0.00" timeLoss="6.80" rerouteNo="0" devices="tripinfo_227" vType="DEFAULT_VEHTYPE" speedFactor="1.00" vaporized=""/>
    <tripinfo id="81" depart="20.00" departLane="17_3way_27to4way_26_0" departPos="5.10" departSpeed="0.00" departDelay="0.72" arrival="84.00" arrivalLane="62_4way_25to4way_24_0" arrivalPos="85.60" arrivalSpeed="13.71" duration="64.00" routeLength="280.50" waitingTime="36.00" waitingCount="1" stopTime="0.00" timeLoss="44.31" rerouteNo="0" devices="tripinfo_81" vType="DEFAULT_VEHTYPE" speedFactor="1.05" vaporized=""/>
    <tripinfo id="129" depart="36.00" departLane="41_4way_11to4way_10_0" departPos="5.10" departSpeed="0.00" departDelay="5.30" arrival="84.00" arrivalLane="41_4way_11to4way_10_0" arrivalPos="85.60" arrivalSpeed="8.44" duration="48.00" routeLength="80.50" waitingTime="30.00" waitingCount="1" stopTime="0.00" timeLoss="42.40" rerouteNo="0" devices="tripinfo_129" vType="DEFAULT_VEHTYPE" speedFactor="1.14" vaporized=""/>
    <tripinfo id="25" depart="6.00" departLane="37_3way_46to4way_39_0" departPos="5.10" departSpeed="0.00" departDelay="0.05" arrival="85.00" arrivalLane="77_4way_38to4way_37_0" arrivalPos="85.60" arrivalSpeed="12.85" duration="79.00" routeLength="275.13" waitingTime="47.00" waitingCount="1" stopTime="0.00" timeLoss="57.53" rerouteNo="0" devices="tripinfo_25" vType="DEFAULT_VEHTYPE" speedFactor="0.95" vaporized=""/>
    <tripinfo id="203" depart="49.00" departLane="36_3way_46to3way_47_0" departPos="5.10" departSpeed="0.00" departDelay="0.69" arrival="85.00" arrivalLane="28_3way_47to3way_41_0" arrivalPos="182.40" arrivalSpeed="13.15" duration="36.00" routeLength="277.30" waitingTime="7.00" waitingCount="1" stopTime="0.00" timeLoss="14.85" rerouteNo="0" devices="tripinfo_203" vType="DEFAULT_VEHTYPE" speedFactor="0.95" vaporized=""/>
    <tripinfo id="300" depart="75.00" departLane="19_3way_28to4way_29_0" departPos="5.10" departSpeed="0.00" departDelay="3.60" arrival="85.00" arrivalLane="19_3way_28to4way_29_0" arrivalPos="85.60" arrivalSpeed="14.47" duration="10.00" routeLength="80.50" waitingTime="0.00" waitingCount="0" stopTime="0.00" timeLoss="3.78" rerouteNo="0" devices="tripinfo_300" vType="DEFAULT_VEHTYPE" speedFactor="1.08" vaporized=""/>
    <tripinfo id="103" depart="25.00" departLane="37_3way_46to4way_39_0" departPos="5.10" departSpeed="0.00" departDelay="0.49" arrival="87.00" arrivalLane="77_4way_38to4way_37_0" arrivalPos="85.60" arrivalSpeed="15.72" duration="62.00" routeLength="275.13" waitingTime="32.00" waitingCount="1" stopTime="0.00" timeLoss="43.75" rerouteNo="0" devices="tripinfo_103" vType="DEFAULT_VEHTYPE" speedFactor="1.15" vaporized=""/>
    <tripinfo id="185" depart="45.00" departLane="52_4way_16to4way_9_0" departPos="5.10" departSpeed="0.00" departDelay="0.97" arrival="87.00" arrivalLane="80_4way_9to4way_8_0" arrivalPos="85.60" arrivalSpeed="6.52" duration="42.00" routeLength="175.13" waitingTime="14.00" waitingCount="2" stopTime="0.00" timeLoss="30.77" rerouteNo="0" devices="tripinfo_185" vType="DEFAULT_VEHTYPE" speedFactor="1.18" vaporized=""/>
    <tripinfo id="246" depart="59.00" departLane="18_3way_28to3way_35_0" departPos="5.10" departSpeed="0.00" departDelay="0.45" arrival="87.00" arrivalLane="30_3way_43to3way_44_0" arrivalPos="85.60" arrivalSpeed="16.10" duration="28.00" routeLength="377.30" waitingTime="0.00" waitingCount="0" stopTime="0.00" timeLoss="4.07" rerouteNo="0" devices="tripinfo_246" vType="DEFAULT_VEHTYPE" speedFactor="1.17" vaporized=""/>