<?xml version="1.0" encoding="UTF-8"?>

<!-- generated on 2023-01-07 15:47:09 by Eclipse SUMO sumo Version 1.12.0
<configuration xmlns:xsi="http://www.w3.org/2001/XMLSchema-instance" xsi:noNamespaceSchemaLocation="http://sumo.dlr.de/xsd/sumoConfiguration.xsd">

    <input>
        <net-file value="../../data_generation/sq.net.xml"/>
        <route-files value="../../data_generation/sq.rou.xml"/>
    </input>

    <output>
        <tripinfo-output value="tripinfo.xml"/>
        <statistic-output value="statistic.xml"/>
    </output>

    <time>
        <begin value="0"/>
        <end value="3600"/>
    </time>

    <processing>
        <time-to-teleport value="-1"/>
    </processing>

    <traci_server>
        <remote-port value="37143"/>
    </traci_server>

    <random_number>
        <seed value="1395"/>
    </random_number>

    <gui_only>
        <gui-settings-file value="../../data_generation/view_HY_0402.xml"/>
    </gui_only>

</configuration>
-->

<tripinfos xmlns:xsi="http://www.w3.org/2001/XMLSchema-instance" xsi:noNamespaceSchemaLocation="http://sumo.dlr.de/xsd/tripinfo_file.xsd">
    <tripinfo id="22" depart="20.00" departLane="478_4way_291to4way_271_0" departPos="5.10" departSpeed="0.00" departDelay="0.42" arrival="37.00" arrivalLane="478_4way_291to4way_271_0" arrivalPos="185.60" arrivalSpeed="13.70" duration="17.00" routeLength="180.50" waitingTime="0.00" waitingCount="0" stopTime="0.00" timeLoss="3.65" rerouteNo="0" devices="tripinfo_22" vType="DEFAULT_VEHTYPE" speedFactor="1.00" vaporized=""/>
    <tripinfo id="9" depart="9.00" departLane="733_4way_76to4way_75_0" departPos="5.10" departSpeed="0.00" departDelay="0.99" arrival="86.00" arrivalLane="731_4way_75to4way_74_0" arrivalPos="185.60" arrivalSpeed="12.27" duration="77.00" routeLength="380.50" waitingTime="37.00" waitingCount="1" stopTime="0.00" timeLoss="46.17" rerouteNo="0" devices="tripinfo_9" vType="DEFAULT_VEHTYPE" speedFactor="0.91" vaporized=""/>
    <tripinfo id="18" depart="19.00" departLane="359_4way_230to4way_210_0" departPos="5.10" departSpeed="0.00" departDelay="2.98" arrival="130.00" arrivalLane="322_4way_210to4way_190_0" arrivalPos="185.60" arrivalSpeed="4.83" duration="111.00" routeLength="380.50" waitingTime="67.00" waitingCount="2" stopTime="0.00" timeLoss="82.27" rerouteNo="0" devices="tripinfo_18" vType="DEFAULT_VEHTYPE" speedFactor="0.96" vaporized=""/>
    <tripinfo id="7" depart="7.00" departLane="77_3way_359to3way_339_0" departPos="5.10" departSpeed="0.00" departDelay="0.77" arrival="132.00" arrivalLane="55_3way_259to3way_239_0" arrivalPos="185.60" arrivalSpeed="12.63" duration="125.00" routeLength="1180.50" waitingTime="23.00" waitingCount="1" stopTime="0.00" timeLoss="35.47" rerouteNo="0" devices="tripinfo_7" vType="DEFAULT_VEHTYPE" speedFactor="0.95" vaporized=""/>
    <tripinfo id="27" depart="25.00" departLane="41_3way_180to3way_200_0" departPos="5.10" departSpeed="0.00" departDelay="0.97" arrival="144.00" arrivalLane="54_3way_220to4way_221_0" arrivalPos="185.60" arrivalSpeed="13.40" duration="119.00" routeLength="575.13" waitingTime="63.00" waitingCount="2" stopTime="0.00" timeLoss="78.13" rerouteNo="0" devices="tripinfo_27" vType="DEFAULT_VEHTYPE" speedFactor="1.03" vaporized=""/>
    <tripinfo id="62" depart="56.00" departLane="217_4way_150to4way_130_0" departPos="5.10" departSpeed="0.00" departDelay="0.82" arrival="144.00" arrivalLane="208_4way_127to4way_126_0" arrivalPos="185.60" arrivalSpeed="13.44" duration="88.00" routeLength="975.13" waitingTime="6.00" waitingCount="1" stopTime="0.00" timeLoss="20.03" rerouteNo="0" devices="tripinfo_62" vType="DEFAULT_VEHTYPE" speedFactor="1.05" vaporized=""/>
    <tripinfo id="160" depart="143.00" departLane="90_3way_382to4way_362_0" departPos="5.10" departSpeed="0.00" departDelay="0.60" arrival="162.00" arrivalLane="90_3way_382to4way_362_0" arrivalPos="185.60" arrivalSpeed="11.12" duration="19.00" routeLength="180.50" waitingTime="0.00" waitingCount="0" stopTime="0.00" timeLoss="3.40" rerouteNo="0" devices="tripinfo_160" vType="DEFAULT_VEHTYPE" speedFactor="0.88" vaporized=""/>
    <tripinfo id="93" depart="83.00" departLane="628_4way_369to4way_349_0" departPos="5.10" departSpeed="0.00" departDelay="0.23" arrival="165.00" arrivalLane="547_4way_309to4way_308_0" arrivalPos="185.60" arrivalSpeed="12.98" duration="82.00" routeLength="775.13" waitingTime="11.00" waitingCount="1" stopTime="0.00" timeLoss="25.55" rerouteNo="0" devices="tripinfo_93" vType="DEFAULT_VEHTYPE" speedFactor="1.00" vaporized=""/>
    <tripinfo id="167" depart="149.00" departLane="697_4way_54to4way_74_0" departPos="5.10" departSpeed="0.00" departDelay="0.37" arrival="168.00" arrivalLane="697_4way_54to4way_74_0" arrivalPos="185.60" arrivalSpeed="11.59" duration="19.00" routeLength="180.50" waitingTime="0.00" waitingCount="0" stopTime="0.00" timeLoss="3.47" rerouteNo="0" devices="tripinfo_167" vType="DEFAULT_VEHTYPE" speedFactor="0.85" vaporized=""/>
    <tripinfo id="198" depart="177.00" departLane="540_4way_324to4way_304_0" departPos="5.10" departSpeed="0.00" departDelay="0.78" arrival="196.00" arrivalLane="540_4way_324to4way_304_0" arrivalPos="185.60" arrivalSpeed="11.00" duration="19.00" routeLength="180.50" waitingTime="0.00" waitingCount="0" stopTime="0.00" timeLoss="3.55" rerouteNo="0" devices="tripinfo_198" vType="DEFAULT_VEHTYPE" speedFactor="0.87" vaporized=""/>
    <tripinfo id="148" depart="132.00" departLane="666_4way_375to4way_376_0" departPos="5.10" departSpeed="0.00" departDelay="0.28" arrival="203.00" arrivalLane="120_4way_376to3way_396_0" arrivalPos="185.60" arrivalSpeed="13.79" duration="71.00" routeLength="380.30" waitingTime="35.00" waitingCount="1" stopTime="0.00" timeLoss="44.70" rerouteNo="0" devices="tripinfo_148" vType="DEFAULT_VEHTYPE" speedFactor="1.07" vaporized=""/>
    <tripinfo id="118" depart="106.00" departLane="165_4way_87to4way_107_0" departPos="5.10" departSpeed="0.00" departDelay="0.98" arrival="204.00" arrivalLane="157_4way_106to4way_105_0" arrivalPos="185.60" arrivalSpeed="13.34" duration="98.00" routeLength="580.30" waitingTime="40.00" waitingCount="2" stopTime="0.00" timeLoss="57.07" rerouteNo="0" devices="tripinfo_118" vType="DEFAULT_VEHTYPE" speedFactor="1.05" vaporized=""/>
    <tripinfo id="37" depart="33.00" departLane="27_3way_16to3way_15_0" departPos="5.10" departSpeed="0.00" departDelay="0.07" arrival="205.00" arrivalLane="181_4way_114to4way_113_0" arrivalPos="185.60" arrivalSpeed="13.73" duration="172.00" routeLength="1574.93" waitingTime="35.00" waitingCount="2" stopTime="0.00" timeLoss="56.06" rerouteNo="0" devices="tripinfo_37" vType="DEFAULT_VEHTYPE" speedFactor="0.99" vaporized=""/>
    <tripinfo id="127" depart="114.00" departLane="78_3way_339to4way_338_0" departPos="5.10" departSpeed="0.00" departDelay="0.97" arrival="205.00" arrivalLane="604_4way_337to4way_336_0" arrivalPos="185.60" arrivalSpeed="13.24" duration="91.00" routeLength="580.50" waitingTime="39.00" waitingCount="1" stopTime="0.00" timeLoss="48.25" rerouteNo="0" devices="tripinfo_127" vType="DEFAULT_VEHTYPE" speedFactor="1.00" vaporized=""/>
    <tripinfo id="158" depart="141.00" departLane="166_4way_109to4way_108_0" departPos="5.10" departSpeed="0.00" departDelay="0.38" arrival="205.00" arrivalLane="160_4way_107to4way_106_0" arrivalPos="185.60" arrivalSpeed="13.32" duration="64.00" routeLength="580.50" waitingTime="11.00" waitingCount="1" stopTime="0.00" timeLoss="20.21" rerouteNo="0" devices="tripinfo_158" vType="DEFAULT_VEHTYPE" speedFactor="0.96" vaporized=""/>
    <tripinfo id="20" depart="18.00" departLane="427_4way_246to4way_266_0" departPos="5.10" departSpeed="0.00" departDelay="0.20" arrival="206.00" arrivalLane="579_4way_324to4way_344_0" arrivalPos="185.60" arrivalSpeed="11.40" duration="188.00" routeLength="1374.93" waitingTime="56.00" waitingCount="2" stopTime="0.00" timeLoss="75.32" rerouteNo="0" devices="tripinfo_20" vType="DEFAULT_VEHTYPE" speedFactor="0.89" vaporized=""/>
    <tripinfo id="156" depart="139.00" departLane="81_3way_379to3way_359_0" departPos="5.10" departSpeed="0.00" departDelay="0.16" arrival="207.00" arrivalLane="67_3way_319to3way_299_0" arrivalPos="185.60" arrivalSpeed="12.22" duration="68.00" routeLength="780.50" waitingTime="0.00" waitingCount="0" stopTime="0.00" timeLoss="5.81" rerouteNo="0" devices="tripinfo_156" vType="DEFAULT_VEHTYPE" speedFactor="0.91" vaporized=""/>
    <tripinfo id="159" depart="142.00" departLane="663_4way_372to4way_373_0" departPos="5.10" departSpeed="0.00" departDelay="0.49" arrival="207.00" arrivalLane="642_4way_375to4way_355_0" arrivalPos="185.60" arrivalSpeed="12.57" duration="65.00" routeLength="775.13" waitingTime="0.00" waitingCount="0" stopTime="0.00" timeLoss="7.72" rerouteNo="0" devices="tripinfo_159" vType="DEFAULT_VEHTYPE" speedFactor="0.99" vaporized=""/>
    <tripinfo id="149" depart="133.00" departLane="739_4way_78to4way_98_0" departPos="5.10" departSpeed="0.00" departDelay="0.39" arrival="214.00" arrivalLane="267_4way_158to4way_178_0" arrivalPos="185.60" arrivalSpeed="12.81" duration="81.00" routeLength="980.50" waitingTime="0.00" waitingCount="0" stopTime="0.00" timeLoss="6.75" rerouteNo="0" devices="tripinfo_149" vType="DEFAULT_VEHTYPE" speedFactor="0.95" vaporized=""/>
    <tripinfo id="142" depart="127.00" departLane="61_3way_280to3way_260_0" departPos="5.10" departSpeed="0.00" departDelay="0.62" arrival="215.00" arrivalLane="420_4way_243to4way_244_0" arrivalPos="185.60" arrivalSpeed="15.05" duration="88.00" routeLength="1180.30" waitingTime="0.00" waitingCount="0" stopTime="0.00" timeLoss="8.92" rerouteNo="0" devices="tripinfo_142" vType="DEFAULT_VEHTYPE" speedFactor="1.09" vaporized=""/>
    <tripinfo id="25" depart="23.00" departLane="426_4way_246to4way_247_0" departPos="5.10" departSpeed="0.00" departDelay="0.75" arrival="221.00" arrivalLane="355_4way_229to4way_209_0" arrivalPos="185.60" arrivalSpeed="12.46" duration="198.00" routeLength="975.13" waitingTime="101.00" waitingCount="3" stopTime="0.00" timeLoss="122.91" rerouteNo="0" devices="tripinfo_25" vType="DEFAULT_VEHTYPE" speedFactor="0.95" vaporized=""/>
    <tripinfo id="2" depart="2.00" departLane="749_4way_91to4way_90_0" departPos="5.10" departSpeed="0.00" departDelay="0.22" arrival="223.00" arrivalLane="161_4way_106to4way_126_0" arrivalPos="185.60" arrivalSpeed="13.84" duration="221.00" routeLength="1369.56" waitingTime="90.00" waitingCount="3" stopTime="0.00" timeLoss="124.11" rerouteNo="0" devices="tripinfo_2" vType="DEFAULT_VEHTYPE" speedFactor="1.04" vaporized=""/>
    <tripinfo id="163" depart="146.00" departLane="179_4way_132to4way_112_0" departPos="5.10" departSpeed="0.00" departDelay="0.93" arrival="228.00" arrivalLane="571_4way_52to4way_32_0" arrivalPos="185.60" arrivalSpeed="12.54" duration="82.00" routeLength="980.50" waitingTime="0.00" waitingCount="0" stopTime="0.00" timeLoss="6.78" rerouteNo="0" devices="tripinfo_163" vType="DEFAULT_VEHTYPE" speedFactor="0.94" vaporized=""/>
    <tripinfo id="72" depart="65.00" departLane="325_4way_192to4way_193_0" departPos="5.10" departSpeed="0.00" departDelay="0.92" arrival="236.00" arrivalLane="520_4way_293to4way_294_0" arrivalPos="185.60" arrivalSpeed="15.50" duration="171.00" routeLength="1374.93" waitingTime="61.00" waitingCount="2" stopTime="0.00" timeLoss="83.63" rerouteNo="0" devices="tripinfo_72" vType="DEFAULT_VEHTYPE" speedFactor="1.15" vaporized=""/>
    <tripinfo id="82" depart="73.00" departLane="563_4way_315to4way_316_0" departPos="5.10" departSpeed="0.00" departDelay="0.02" arrival="238.00" arrivalLane="335_4way_197to4way_198_0" arrivalPos="185.60" arrivalSpeed="13.20" duration="165.00" routeLength="1774.93" waitingTime="20.00" waitingCount="1" stopTime="0.00" timeLoss="34.75" rerouteNo="0" devices="tripinfo_82" vType="DEFAULT_VEHTYPE" speedFactor="0.99" vaporized=""/>
    <tripinfo id="217" depart="194.00" departLane="209_4way_126to4way_146_0" departPos="5.10" departSpeed="0.00" departDelay="0.87" arrival="239.00" arrivalLane="245_4way_147to4way_148_0" arrivalPos="185.60" arrivalSpeed="14.41" duration="45.00" routeLength="575.13" waitingTime="0.00" waitingCount="0" stopTime="0.00" timeLoss="6.47" rerouteNo="0" devices="tripinfo_217" vType="DEFAULT_VEHTYPE" speedFactor="1.12" vaporized=""/>
    <tripinfo id="187" depart="167.00" departLane="33_3way_180to3way_160_0" departPos="5.10" departSpeed="0.00" departDelay="0.57" arrival="246.00" arrivalLane="201_4way_142to4way_122_0" arrivalPos="185.60" arrivalSpeed="13.41" duration="79.00" routeLength="974.93" waitingTime="0.00" waitingCount="0" stopTime="0.00" timeLoss="9.31" rerouteNo="0" devices="tripinfo_187" vType="DEFAULT_VEHTYPE" speedFactor="1.03" vaporized=""/>
    <tripinfo id="103" depart="92.00" departLane="655_4way_366to4way_367_0" departPos="5.10" departSpeed="0.00" departDelay="0.33" arrival="247.00" arrivalLane="661_4way_370to4way_371_0" arrivalPos="185.60" arrivalSpeed="15.90" duration="155.00" routeLength="980.50" waitingTime="52.00" waitingCount="2" stopTime="0.00" timeLoss="93.09" rerouteNo="0" devices="tripinfo_103" vType="DEFAULT_VEHTYPE" speedFactor="1.15" vaporized=""/>
    <tripinfo id="101" depart="90.00" departLane="47_3way_20to3way_40_0" departPos="5.10" departSpeed="0.00" departDelay="0.11" arrival="249.00" arrivalLane="204_4way_124to4way_125_0" arrivalPos="185.60" arrivalSpeed="13.39" duration="159.00" routeLength="1975.13" waitingTime="2.00" waitingCount="1" stopTime="0.00" timeLoss="19.39" rerouteNo="0" devices="tripinfo_101" vType="DEFAULT_VEHTYPE" speedFactor="1.03" vaporized=""/>
    <tripinfo id="51" depart="46.00" departLane="756_4way_98to4way_97_0" departPos="5.10" departSpeed="0.00" departDelay="0.61" arrival="250.00" arrivalLane="752_4way_94to4way_93_0" arrivalPos="185.60" arrivalSpeed="4.25" duration="204.00" routeLength="980.50" waitingTime="87.00" waitingCount="3" stopTime="0.00" timeLoss="109.03" rerouteNo="0" devices="tripinfo_51" vType="DEFAULT_VEHTYPE" speedFactor="0.74" vaporized=""/>
    <tripinfo id="164" depart="146.00" departLane="207_4way_145to4way_125_0" departPos="5.10" departSpeed="0.00" departDelay="0.04" arrival="250.00" arrivalLane="151_4way_104to4way_103_0" arrivalPos="185.60" arrivalSpeed="4.59" duration="104.00" routeLength="775.13" waitingTime="40.00" waitingCount="1" stopTime="0.00" timeLoss="53.09" rerouteNo="0" devices="tripinfo_164" vType="DEFAULT_VEHTYPE" speedFactor="1.11" vaporized=""/>
    <tripinfo id="59" depart="53.00" departLane="178_4way_112to4way_113_0" departPos="5.10" departSpeed="0.00" departDelay="0.49" arrival="256.00" arrivalLane="296_4way_175to4way_176_0" arrivalPos="185.60" arrivalSpeed="13.65" duration="203.00" routeLength="1374.93" waitingTime="81.00" waitingCount="3" stopTime="0.00" timeLoss="105.38" rerouteNo="0" devices="tripinfo_59" vType="DEFAULT_VEHTYPE" speedFactor="1.03" vaporized=""/>
    <tripinfo id="65" depart="58.00" departLane="279_4way_166to4way_186_0" departPos="5.10" departSpeed="0.00" departDelay="0.15" arrival="263.00" arrivalLane="393_4way_229to4way_230_0" arrivalPos="185.60" arrivalSpeed="16.28" duration="205.00" routeLength="1375.13" waitingTime="99.00" waitingCount="2" stopTime="0.00" timeLoss="121.12" rerouteNo="0" devices="tripinfo_65" vType="DEFAULT_VEHTYPE" speedFactor="1.20" vaporized=""/>
    <tripinfo id="92" depart="82.00" departLane="358_4way_210to4way_211_0" departPos="5.10" departSpeed="0.00" departDelay="0.12" arrival="263.00" arrivalLane="370_4way_216to4way_217_0" arrivalPos="185.60" arrivalSpeed="14.82" duration="181.00" routeLength="1380.50" waitingTime="68.00" waitingCount="3" stopTime="0.00" timeLoss="92.46" rerouteNo="0" devices="tripinfo_92" vType="DEFAULT_VEHTYPE" speedFactor="1.13" vaporized=""/>
    <tripinfo id="135" depart="121.00" departLane="229_4way_136to4way_156_0" departPos="5.10" departSpeed="0.00" departDelay="0.85" arrival="263.00" arrivalLane="372_4way_217to4way_218_0" arrivalPos="185.60" arrivalSpeed="14.80" duration="142.00" routeLength="1175.13" waitingTime="44.00" waitingCount="2" stopTime="0.00" timeLoss="63.82" rerouteNo="0" devices="tripinfo_135" vType="DEFAULT_VEHTYPE" speedFactor="1.09" vaporized=""/>
    <tripinfo id="138" depart="123.00" departLane="406_4way_234to4way_254_0" departPos="5.10" departSpeed="0.00" departDelay="0.18" arrival="264.00" arrivalLane="487_4way_276to4way_277_0" arrivalPos="185.60" arrivalSpeed="13.53" duration="141.00" routeLength="975.13" waitingTime="51.00" waitingCount="2" stopTime="0.00" timeLoss="70.01" rerouteNo="0" devices="tripinfo_138" vType="DEFAULT_VEHTYPE" speedFactor="1.00" vaporized=""/>
    <tripinfo id="232" depart="207.00" departLane="8_3way_80to3way_100_0" departPos="5.10" departSpeed="0.00" departDelay="0.52" arrival="264.00" arrivalLane="145_4way_101to4way_102_0" arrivalPos="185.60" arrivalSpeed="13.73" duration="57.00" routeLength="575.13" waitingTime="4.00" waitingCount="1" stopTime="0.00" timeLoss="17.38" rerouteNo="0" devices="tripinfo_232" vType="DEFAULT_VEHTYPE" speedFactor="1.06" vaporized=""/>
    <tripinfo id="29" depart="26.00" departLane="235_4way_142to4way_143_0" departPos="5.10" departSpeed="0.00" departDelay="0.19" arrival="265.00" arrivalLane="164_4way_127to4way_107_0" arrivalPos="185.60" arrivalSpeed="13.16" duration="239.00" routeLength="1375.13" waitingTime="108.00" waitingCount="3" stopTime="0.00" timeLoss="134.19" rerouteNo="0" devices="tripinfo_29" vType="DEFAULT_VEHTYPE" speedFactor="0.95" vaporized=""/>
    <tripinfo id="126" depart="113.00" departLane="328_4way_193to4way_213_0" departPos="5.10" departSpeed="0.00" departDelay="0.86" arrival="265.00" arrivalLane="560_4way_313to4way_333_0" arrivalPos="185.60" arrivalSpeed="13.00" duration="152.00" routeLength="1380.50" waitingTime="35.00" waitingCount="2" stopTime="0.00" timeLoss="52.46" rerouteNo="0" devices="tripinfo_126" vType="DEFAULT_VEHTYPE" speedFactor="1.01" vaporized=""/>
    <tripinfo id="115" depart="103.00" departLane="455_4way_261to4way_262_0" departPos="5.10" departSpeed="0.00" departDelay="0.65" arrival="266.00" arrivalLane="380_4way_242to4way_222_0" arrivalPos="185.60" arrivalSpeed="12.44" duration="163.00" routeLength="575.13" waitingTime="102.00" waitingCount="2" stopTime="0.00" timeLoss="116.81" rerouteNo="0" devices="tripinfo_115" vType="DEFAULT_VEHTYPE" speedFactor="0.92" vaporized=""/>
    <tripinfo id="66" depart="59.00" departLane="379_4way_223to4way_222_0" departPos="5.10" departSpeed="0.00" departDelay="0.26" arrival="267.00" arrivalLane="88_4way_361to3way_381_0" arrivalPos="185.60" arrivalSpeed="10.63" duration="208.00" routeLength="1969.56" waitingTime="15.00" waitingCount="2" stopTime="0.00" timeLoss="39.51" rerouteNo="0" devices="tripinfo_66" vType="DEFAULT_VEHTYPE" speedFactor="0.86" vaporized=""/>
    <tripinfo id="47" depart="42.00" departLane="357_4way_21to4way_41_0" departPos="5.10" departSpeed="0.00" departDelay="0.17" arrival="268.00" arrivalLane="203_4way_123to4way_143_0" arrivalPos="185.60" arrivalSpeed="11.77" duration="226.00" routeLength="1574.93" waitingTime="70.00" waitingCount="4" stopTime="0.00" timeLoss="97.38" rerouteNo="0" devices="tripinfo_47" vType="DEFAULT_VEHTYPE" speedFactor="0.90" vaporized=""/>
    <tripinfo id="258" depart="230.00" departLane="342_4way_204to4way_203_0" departPos="5.10" departSpeed="0.00" departDelay="0.38" arrival="274.00" arrivalLane="338_4way_202to4way_201_0" arrivalPos="185.60" arrivalSpeed="14.54" duration="44.00" routeLength="580.50" waitingTime="0.00" waitingCount="0" stopTime="0.00" timeLoss="6.21" rerouteNo="0" devices="tripinfo_258" vType="DEFAULT_VEHTYPE" speedFactor="1.12" vaporized=""/>
    <tripinfo id="203" depart="181.00" departLane="708_4way_62to4way_82_0" departPos="5.10" departSpeed="0.00" departDelay="0.33" arrival="281.00" arrivalLane="742_4way_83to4way_84_0" arrivalPos="185.60" arrivalSpeed="12.60" duration="100.00" routeLength="575.13" waitingTime="46.00" waitingCount="1" stopTime="0.00" timeLoss="55.38" rerouteNo="0" devices="tripinfo_203" vType="DEFAULT_VEHTYPE" speedFactor="0.95" vaporized=""/>
    <tripinfo id="8" depart="8.00" departLane="188_4way_135to4way_115_0" departPos="5.10" departSpeed="0.00" departDelay="0.88" arrival="283.00" arrivalLane="5_3way_10to3way_9_0" arrivalPos="185.60" arrivalSpeed="13.07" duration="275.00" routeLength="2375.13" waitingTime="75.00" waitingCount="2" stopTime="0.00" timeLoss="98.33" rerouteNo="0" devices="tripinfo_8" vType="DEFAULT_VEHTYPE" speedFactor="0.98" vaporized=""/>
    <tripinfo id="189" depart="169.00" departLane="512_4way_30to4way_29_0" departPos="5.10" departSpeed="0.00" departDelay="0.79" arrival="284.00" arrivalLane="474_4way_27to4way_47_0" arrivalPos="185.60" arrivalSpeed="12.20" duration="115.00" routeLength="775.13" waitingTime="41.00" waitingCount="1" stopTime="0.00" timeLoss="53.04" rerouteNo="0" devices="tripinfo_189" vType="DEFAULT_VEHTYPE" speedFactor="0.92" vaporized=""/>
    <tripinfo id="23" depart="21.00" departLane="92_3way_383to4way_363_0" departPos="5.10" departSpeed="0.00" departDelay="0.53" arrival="286.00" arrivalLane="416_4way_242to4way_241_0" arrivalPos="185.60" arrivalSpeed="11.85" duration="265.00" routeLength="1769.56" waitingTime="88.00" waitingCount="3" stopTime="0.00" timeLoss="116.54" rerouteNo="0" devices="tripinfo_23" vType="DEFAULT_VEHTYPE" speedFactor="0.87" vaporized=""/>
    <tripinfo id="303" depart="270.00" departLane="148_4way_102to4way_103_0" departPos="5.10" departSpeed="0.00" departDelay="0.33" arrival="287.00" arrivalLane="148_4way_102to4way_103_0" arrivalPos="185.60" arrivalSpeed="13.17" duration="17.00" routeLength="180.50" waitingTime="0.00" waitingCount="0" stopTime="0.00" timeLoss="3.36" rerouteNo="0" devices="tripinfo_303" vType="DEFAULT_VEHTYPE" speedFactor="1.02" vaporized=""/>
    <tripinfo id="6" depart="6.00" departLane="266_4way_157to4way_177_0" departPos="5.10" departSpeed="0.00" departDelay="0.66" arrival="310.00" arrivalLane="319_4way_190to4way_189_0" arrivalPos="185.60" arrivalSpeed="7.71" duration="304.00" routeLength="1980.30" waitingTime="125.00" waitingCount="4" stopTime="0.00" timeLoss="165.93" rerouteNo="0" devices="tripinfo_6" vType="DEFAULT_VEHTYPE" speedFactor="1.04" vaporized=""/>
    <tripinfo id="10" depart="9.00" departLane="405_4way_234to4way_235_0" departPos="5.10" departSpeed="0.00" departDelay="0.10" arrival="310.00" arrivalLane="374_4way_238to4way_218_0" arrivalPos="185.60" arrivalSpeed="5.00" duration="301.00" routeLength="975.13" waitingTime="200.00" waitingCount="4" stopTime="0.00" timeLoss="232.86" rerouteNo="0" devices="tripinfo_10" vType="DEFAULT_VEHTYPE" speedFactor="1.04" vaporized=""/>
    <tripinfo id="175" depart="156.00" departLane="23_3way_15to3way_14_0" departPos="5.10" departSpeed="0.00" departDelay="0.25" arrival="310.00" arrivalLane="726_4way_71to4way_91_0" arrivalPos="185.60" arrivalSpeed="4.50" duration="154.00" routeLength="1575.13" waitingTime="17.00" waitingCount="2" stopTime="0.00" timeLoss="38.52" rerouteNo="0" devices="tripinfo_175" vType="DEFAULT_VEHTYPE" speedFactor="0.99" vaporized=""/>
    <tripinfo id="207" depart="185.00" departLane="377_4way_222to4way_221_0" departPos="5.10" departSpeed="0.00" departDelay="0.77" arrival="310.00" arrivalLane="534_4way_301to4way_321_0" arrivalPos="185.60" arrivalSpeed="17.15" duration="125.00" routeLength="1175.13" waitingTime="43.00" waitingCount="1" stopTime="0.00" timeLoss="55.57" rerouteNo="0" devices="tripinfo_207" vType="DEFAULT_VEHTYPE" speedFactor="1.24" vaporized=""/>
    <tripinfo id="95" depart="85.00" departLane="417_4way_241to4way_261_0" departPos="5.10" departSpeed="0.00" departDelay="0.45" arrival="311.00" arrivalLane="500_4way_284to4way_285_0" arrivalPos="185.60" arrivalSpeed="5.91" duration="226.00" routeLength="1175.13" waitingTime="102.00" waitingCount="3" stopTime="0.00" timeLoss="128.59" rerouteNo="0" devices="tripinfo_95" vType="DEFAULT_VEHTYPE" speedFactor="0.88" vaporized=""/>
    <tripinfo id="251" depart="224.00" departLane="362_4way_213to4way_212_0" departPos="5.10" departSpeed="0.00" departDelay="0.61" arrival="312.00" arrivalLane="352_4way_209to4way_208_0" arrivalPos="185.60" arrivalSpeed="13.31" duration="88.00" routeLength="980.50" waitingTime="5.00" waitingCount="1" stopTime="0.00" timeLoss="16.00" rerouteNo="0" devices="tripinfo_251" vType="DEFAULT_VEHTYPE" speedFactor="0.99" vaporized=""/>
    <tripinfo id="68" depart="61.00" departLane="254_4way_151to4way_171_0" departPos="5.10" departSpeed="0.00" departDelay="0.48" arrival="313.00" arrivalLane="432_4way_250to4way_249_0" arrivalPos="185.60" arrivalSpeed="7.24" duration="252.00" routeLength="1380.30" waitingTime="127.00" waitingCount="4" stopTime="0.00" timeLoss="159.95" rerouteNo="0" devices="tripinfo_68" vType="DEFAULT_VEHTYPE" speedFactor="1.09" vaporized=""/>
    <tripinfo id="170" depart="152.00" departLane="199_4way_141to4way_121_0" departPos="5.10" departSpeed="0.00" departDelay="0.70" arrival="313.00" arrivalLane="711_4way_64to4way_65_0" arrivalPos="185.60" arrivalSpeed="7.80" duration="161.00" routeLength="1580.30" waitingTime="19.00" waitingCount="2" stopTime="0.00" timeLoss="45.82" rerouteNo="0" devices="tripinfo_170" vType="DEFAULT_VEHTYPE" speedFactor="1.00" vaporized=""/>
    <tripinfo id="332" depart="296.00" departLane="542_4way_305to4way_325_0" departPos="5.10" departSpeed="0.00" departDelay="0.52" arrival="315.00" arrivalLane="542_4way_305to4way_325_0" arrivalPos="185.60" arrivalSpeed="10.40" duration="19.00" routeLength="180.50" waitingTime="0.00" waitingCount="0" stopTime="0.00" timeLoss="3.25" rerouteNo="0" devices="tripinfo_332" vType="DEFAULT_VEHTYPE" speedFactor="0.83" vaporized=""/>
    <tripinfo id="278" depart="248.00" departLane="434_4way_26to4way_25_0" departPos="5.10" departSpeed="0.00" departDelay="0.58" arrival="316.00" arrivalLane="375_4way_23to4way_22_0" arrivalPos="185.60" arrivalSpeed="12.67" duration="68.00" routeLength="780.50" waitingTime="0.00" waitingCount="0" stopTime="0.00" timeLoss="6.11" rerouteNo="0" devices="tripinfo_278" vType="DEFAULT_VEHTYPE" speedFactor="0.91" vaporized=""/>
    <tripinfo id="245" depart="219.00" departLane="512_4way_30to4way_29_0" departPos="5.10" departSpeed="0.00" departDelay="0.95" arrival="322.00" arrivalLane="395_4way_24to4way_23_0" arrivalPos="185.60" arrivalSpeed="15.08" duration="103.00" routeLength="1380.50" waitingTime="0.00" waitingCount="0" stopTime="0.00" timeLoss="16.11" rerouteNo="0" devices="tripinfo_245" vType="DEFAULT_VEHTYPE" speedFactor="1.15" vaporized=""/>
    <tripinfo id="284" depart="253.00" departLane="230_4way_138to4way_137_0" departPos="5.10" departSpeed="0.00" departDelay="0.24" arrival="323.00" arrivalLane="187_4way_116to4way_115_0" arrivalPos="185.60" arrivalSpeed="14.32" duration="70.00" routeLength="774.93" waitingTime="5.00" waitingCount="1" stopTime="0.00" timeLoss="19.12" rerouteNo="0" devices="tripinfo_284" vType="DEFAULT_VEHTYPE" speedFactor="1.12" vaporized=""/>
    <tripinfo id="326" depart="291.00" departLane="18_3way_120to4way_121_0" departPos="5.10" departSpeed="0.00" departDelay="0.86" arrival="323.00" arrivalLane="198_4way_121to4way_122_0" arrivalPos="185.60" arrivalSpeed="13.26" duration="32.00" routeLength="380.50" waitingTime="0.00" waitingCount="0" stopTime="0.00" timeLoss="4.29" rerouteNo="0" devices="tripinfo_326" vType="DEFAULT_VEHTYPE" speedFactor="1.00" vaporized=""/>
    <tripinfo id="32" depart="29.00" departLane="711_4way_65to4way_64_0" departPos="5.10" departSpeed="0.00" departDelay="0.52" arrival="324.00" arrivalLane="198_4way_122to4way_121_0" arrivalPos="185.60" arrivalSpeed="13.16" duration="295.00" routeLength="1374.93" waitingTime="161.00" waitingCount="5" stopTime="0.00" timeLoss="194.88" rerouteNo="0" devices="tripinfo_32" vType="DEFAULT_VEHTYPE" speedFactor="1.00" vaporized=""/>
    <tripinfo id="78" depart="70.00" departLane="355_4way_209to4way_229_0" departPos="5.10" departSpeed="0.00" departDelay="0.58" arrival="324.00" arrivalLane="484_4way_274to4way_294_0" arrivalPos="185.60" arrivalSpeed="14.18" duration="254.00" routeLength="1774.93" waitingTime="92.00" waitingCount="4" stopTime="0.00" timeLoss="127.84" rerouteNo="0" devices="tripinfo_78" vType="DEFAULT_VEHTYPE" speedFactor="1.03" vaporized=""/>
    <tripinfo id="64" depart="57.00" departLane="237_4way_143to4way_144_0" departPos="5.10" departSpeed="0.00" departDelay="0.04" arrival="325.00" arrivalLane="324_4way_191to4way_211_0" arrivalPos="185.60" arrivalSpeed="12.49" duration="268.00" routeLength="2180.30" waitingTime="80.00" waitingCount="2" stopTime="0.00" timeLoss="103.74" rerouteNo="0" devices="tripinfo_64" vType="DEFAULT_VEHTYPE" speedFactor="0.96" vaporized=""/>
    <tripinfo id="177" depart="158.00" departLane="634_4way_371to4way_351_0" departPos="5.10" departSpeed="0.00" departDelay="0.47" arrival="325.00" arrivalLane="547_4way_309to4way_308_0" arrivalPos="185.60" arrivalSpeed="13.95" duration="167.00" routeLength="1175.13" waitingTime="61.00" waitingCount="2" stopTime="0.00" timeLoss="83.36" rerouteNo="0" devices="tripinfo_177" vType="DEFAULT_VEHTYPE" speedFactor="1.03" vaporized=""/>
    <tripinfo id="108" depart="97.00" departLane="242_4way_165to4way_145_0" departPos="5.10" departSpeed="0.00" departDelay="0.88" arrival="326.00" arrivalLane="414_4way_25to4way_24_0" arrivalPos="185.60" arrivalSpeed="11.51" duration="229.00" routeLength="1575.13" waitingTime="79.00" waitingCount="2" stopTime="0.00" timeLoss="98.53" rerouteNo="0" devices="tripinfo_108" vType="DEFAULT_VEHTYPE" speedFactor="0.88" vaporized=""/>
    <tripinfo id="324" depart="289.00" departLane="120_3way_396to4way_376_0" departPos="5.10" departSpeed="0.00" departDelay="0.64" arrival="326.00" arrivalLane="666_4way_376to4way_375_0" arrivalPos="185.60" arrivalSpeed="13.88" duration="37.00" routeLength="375.13" waitingTime="0.00" waitingCount="0" stopTime="0.00" timeLoss="10.10" rerouteNo="0" devices="tripinfo_324" vType="DEFAULT_VEHTYPE" speedFactor="1.05" vaporized=""/>