<?xml version="1.0" encoding="UTF-8"?>

<!-- generated on 2023-07-28 21:39:40 by Eclipse SUMO sumo Version 1.12.0
<configuration xmlns:xsi="http://www.w3.org/2001/XMLSchema-instance" xsi:noNamespaceSchemaLocation="http://sumo.dlr.de/xsd/sumoConfiguration.xsd">

    <input>
        <net-file value="../../data_generation/sq.net.xml"/>
        <route-files value="../../data_generation/sq.rou.xml"/>
    </input>

    <output>
        <tripinfo-output value="tripinfo.xml"/>
        <statistic-output value="statistic.xml"/>
    </output>

    <time>
        <begin value="0"/>
        <end value="3600"/>
    </time>

    <processing>
        <time-to-teleport value="-1"/>
    </processing>

    <traci_server>
        <remote-port value="49211"/>
    </traci_server>

    <random_number>
        <seed value="1395"/>
    </random_number>

    <gui_only>
        <gui-settings-file value="../../data_generation/view_HY_0402.xml"/>
    </gui_only>

</configuration>
-->

<tripinfos xmlns:xsi="http://www.w3.org/2001/XMLSchema-instance" xsi:noNamespaceSchemaLocation="http://sumo.dlr.de/xsd/tripinfo_file.xsd">
    <tripinfo id="15" depart="5.00" departLane="80_4way_9to4way_8_0" departPos="5.10" departSpeed="0.00" departDelay="0.49" arrival="14.00" arrivalLane="80_4way_9to4way_8_0" arrivalPos="85.60" arrivalSpeed="14.22" duration="9.00" routeLength="80.50" waitingTime="0.00" waitingCount="0" stopTime="0.00" timeLoss="3.21" rerouteNo="0" devices="tripinfo_15" vType="DEFAULT_VEHTYPE" speedFactor="1.05" vaporized=""/>
    <tripinfo id="12" depart="4.00" departLane="17_4way_26to3way_27_0" departPos="5.10" departSpeed="0.00" departDelay="0.39" arrival="22.00" arrivalLane="12_3way_27to3way_20_0" arrivalPos="85.60" arrivalSpeed="14.82" duration="18.00" routeLength="175.13" waitingTime="0.00" waitingCount="0" stopTime="0.00" timeLoss="5.74" rerouteNo="0" devices="tripinfo_12" vType="DEFAULT_VEHTYPE" speedFactor="1.16" vaporized=""/>
    <tripinfo id="14" depart="5.00" departLane="35_4way_38to3way_45_0" departPos="5.10" departSpeed="0.00" departDelay="0.79" arrival="24.00" arrivalLane="34_3way_45to3way_46_0" arrivalPos="85.60" arrivalSpeed="12.68" duration="19.00" routeLength="175.13" waitingTime="0.00" waitingCount="0" stopTime="0.00" timeLoss="4.69" rerouteNo="0" devices="tripinfo_14" vType="DEFAULT_VEHTYPE" speedFactor="0.95" vaporized=""/>
    <tripinfo id="19" depart="6.00" departLane="21_3way_3to4way_10_0" departPos="5.10" departSpeed="0.00" departDelay="0.29" arrival="25.00" arrivalLane="42_4way_10to4way_17_0" arrivalPos="85.60" arrivalSpeed="12.01" duration="19.00" routeLength="180.50" waitingTime="0.00" waitingCount="0" stopTime="0.00" timeLoss="3.77" rerouteNo="0" devices="tripinfo_19" vType="DEFAULT_VEHTYPE" speedFactor="0.89" vaporized=""/>
    <tripinfo id="38" depart="12.00" departLane="42_4way_17to4way_10_0" departPos="5.10" departSpeed="0.00" departDelay="0.57" arrival="29.00" arrivalLane="21_4way_10to3way_3_0" arrivalPos="85.60" arrivalSpeed="12.99" duration="17.00" routeLength="180.50" waitingTime="0.00" waitingCount="0" stopTime="0.00" timeLoss="3.27" rerouteNo="0" devices="tripinfo_38" vType="DEFAULT_VEHTYPE" speedFactor="1.00" vaporized=""/>
    <tripinfo id="64" depart="20.00" departLane="52_4way_16to4way_9_0" departPos="5.10" departSpeed="0.00" departDelay="0.75" arrival="30.00" arrivalLane="52_4way_16to4way_9_0" arrivalPos="85.60" arrivalSpeed="12.09" duration="10.00" routeLength="80.50" waitingTime="0.00" waitingCount="0" stopTime="0.00" timeLoss="3.20" rerouteNo="0" devices="tripinfo_64" vType="DEFAULT_VEHTYPE" speedFactor="0.96" vaporized=""/>
    <tripinfo id="61" depart="22.00" departLane="33_3way_44to4way_37_0" departPos="5.10" departSpeed="0.00" departDelay="3.66" arrival="32.00" arrivalLane="33_3way_44to4way_37_0" arrivalPos="85.60" arrivalSpeed="13.90" duration="10.00" routeLength="80.50" waitingTime="0.00" waitingCount="0" stopTime="0.00" timeLoss="3.32" rerouteNo="0" devices="tripinfo_61" vType="DEFAULT_VEHTYPE" speedFactor="1.01" vaporized=""/>
    <tripinfo id="69" depart="25.00" departLane="53_4way_17to4way_18_0" departPos="5.10" departSpeed="0.00" departDelay="4.25" arrival="35.00" arrivalLane="53_4way_17to4way_18_0" arrivalPos="85.60" arrivalSpeed="10.92" duration="10.00" routeLength="80.50" waitingTime="0.00" waitingCount="0" stopTime="0.00" timeLoss="2.40" rerouteNo="0" devices="tripinfo_69" vType="DEFAULT_VEHTYPE" speedFactor="0.82" vaporized=""/>
    <tripinfo id="21" depart="7.00" departLane="18_3way_28to3way_35_0" departPos="5.10" departSpeed="0.00" departDelay="0.68" arrival="36.00" arrivalLane="24_3way_35to3way_43_0" arrivalPos="182.40" arrivalSpeed="10.85" duration="29.00" routeLength="277.30" waitingTime="0.00" waitingCount="0" stopTime="0.00" timeLoss="3.92" rerouteNo="0" devices="tripinfo_21" vType="DEFAULT_VEHTYPE" speedFactor="0.82" vaporized=""/>
    <tripinfo id="79" depart="26.00" departLane="73_4way_32to4way_33_0" departPos="5.10" departSpeed="0.00" departDelay="2.24" arrival="36.00" arrivalLane="73_4way_32to4way_33_0" arrivalPos="85.60" arrivalSpeed="11.19" duration="10.00" routeLength="80.50" waitingTime="0.00" waitingCount="0" stopTime="0.00" timeLoss="3.21" rerouteNo="0" devices="tripinfo_79" vType="DEFAULT_VEHTYPE" speedFactor="0.90" vaporized=""/>
    <tripinfo id="95" depart="29.00" departLane="36_3way_46to3way_47_0" departPos="5.10" departSpeed="0.00" departDelay="0.43" arrival="39.00" arrivalLane="36_3way_46to3way_47_0" arrivalPos="85.60" arrivalSpeed="11.13" duration="10.00" routeLength="80.50" waitingTime="0.00" waitingCount="0" stopTime="0.00" timeLoss="2.70" rerouteNo="0" devices="tripinfo_95" vType="DEFAULT_VEHTYPE" speedFactor="0.88" vaporized=""/>
    <tripinfo id="102" depart="31.00" departLane="29_3way_41to4way_40_0" departPos="5.10" departSpeed="0.00" departDelay="0.33" arrival="41.00" arrivalLane="29_3way_41to4way_40_0" arrivalPos="85.60" arrivalSpeed="14.08" duration="10.00" routeLength="80.50" waitingTime="0.00" waitingCount="0" stopTime="0.00" timeLoss="3.90" rerouteNo="0" devices="tripinfo_102" vType="DEFAULT_VEHTYPE" speedFactor="1.05" vaporized=""/>
    <tripinfo id="70" depart="22.00" departLane="46_4way_19to4way_12_0" departPos="5.10" departSpeed="0.00" departDelay="0.95" arrival="43.00" arrivalLane="39_4way_12to3way_5_0" arrivalPos="85.60" arrivalSpeed="10.04" duration="21.00" routeLength="180.50" waitingTime="0.00" waitingCount="0" stopTime="0.00" timeLoss="3.20" rerouteNo="0" devices="tripinfo_70" vType="DEFAULT_VEHTYPE" speedFactor="0.75" vaporized=""/>
    <tripinfo id="100" depart="31.00" departLane="80_4way_8to4way_9_0" departPos="5.10" departSpeed="0.00" departDelay="0.93" arrival="46.00" arrivalLane="43_4way_9to4way_10_0" arrivalPos="85.60" arrivalSpeed="16.23" duration="15.00" routeLength="180.50" waitingTime="0.00" waitingCount="0" stopTime="0.00" timeLoss="3.51" rerouteNo="0" devices="tripinfo_100" vType="DEFAULT_VEHTYPE" speedFactor="1.20" vaporized=""/>
    <tripinfo id="56" depart="17.00" departLane="54_4way_17to4way_24_0" departPos="5.10" departSpeed="0.00" departDelay="0.16" arrival="50.00" arrivalLane="78_4way_38to4way_39_0" arrivalPos="85.60" arrivalSpeed="13.87" duration="33.00" routeLength="375.13" waitingTime="0.00" waitingCount="0" stopTime="0.00" timeLoss="5.91" rerouteNo="0" devices="tripinfo_56" vType="DEFAULT_VEHTYPE" speedFactor="1.02" vaporized=""/>
    <tripinfo id="123" depart="40.00" departLane="72_4way_31to4way_38_0" departPos="5.10" departSpeed="0.00" departDelay="3.01" arrival="50.00" arrivalLane="72_4way_31to4way_38_0" arrivalPos="85.60" arrivalSpeed="14.62" duration="10.00" routeLength="80.50" waitingTime="0.00" waitingCount="0" stopTime="0.00" timeLoss="3.62" rerouteNo="0" devices="tripinfo_123" vType="DEFAULT_VEHTYPE" speedFactor="1.06" vaporized=""/>
    <tripinfo id="62" depart="19.00" departLane="8_3way_7to3way_14_0" departPos="5.10" departSpeed="0.00" departDelay="0.36" arrival="51.00" arrivalLane="58_4way_22to4way_23_0" arrivalPos="85.60" arrivalSpeed="14.49" duration="32.00" routeLength="375.13" waitingTime="0.00" waitingCount="0" stopTime="0.00" timeLoss="5.55" rerouteNo="0" devices="tripinfo_62" vType="DEFAULT_VEHTYPE" speedFactor="1.05" vaporized=""/>
    <tripinfo id="152" depart="46.00" departLane="26_3way_5to3way_4_0" departPos="5.10" departSpeed="0.00" departDelay="0.29" arrival="56.00" arrivalLane="26_3way_5to3way_4_0" arrivalPos="85.60" arrivalSpeed="11.12" duration="10.00" routeLength="80.50" waitingTime="0.00" waitingCount="0" stopTime="0.00" timeLoss="2.76" rerouteNo="0" devices="tripinfo_152" vType="DEFAULT_VEHTYPE" speedFactor="0.89" vaporized=""/>
    <tripinfo id="159" depart="48.00" departLane="42_4way_17to4way_10_0" departPos="5.10" departSpeed="0.00" departDelay="0.19" arrival="58.00" arrivalLane="42_4way_17to4way_10_0" arrivalPos="85.60" arrivalSpeed="12.78" duration="10.00" routeLength="80.50" waitingTime="0.00" waitingCount="0" stopTime="0.00" timeLoss="3.77" rerouteNo="0" devices="tripinfo_159" vType="DEFAULT_VEHTYPE" speedFactor="0.99" vaporized=""/>
    <tripinfo id="47" depart="15.00" departLane="35_3way_45to4way_38_0" departPos="5.10" departSpeed="0.00" departDelay="0.87" arrival="60.00" arrivalLane="42_4way_17to4way_10_0" arrivalPos="85.60" arrivalSpeed="11.73" duration="45.00" routeLength="480.50" waitingTime="0.00" waitingCount="0" stopTime="0.00" timeLoss="5.90" rerouteNo="0" devices="tripinfo_47" vType="DEFAULT_VEHTYPE" speedFactor="0.90" vaporized=""/>
    <tripinfo id="155" depart="47.00" departLane="63_4way_24to4way_31_0" departPos="5.10" departSpeed="0.00" departDelay="0.39" arrival="67.00" arrivalLane="71_4way_31to4way_32_0" arrivalPos="85.60" arrivalSpeed="12.08" duration="20.00" routeLength="175.13" waitingTime="0.00" waitingCount="0" stopTime="0.00" timeLoss="5.57" rerouteNo="0" devices="tripinfo_155" vType="DEFAULT_VEHTYPE" speedFactor="0.94" vaporized=""/>
    <tripinfo id="194" depart="59.00" departLane="18_3way_28to3way_35_0" departPos="5.10" departSpeed="0.00" departDelay="0.66" arrival="68.00" arrivalLane="18_3way_28to3way_35_0" arrivalPos="85.60" arrivalSpeed="14.19" duration="9.00" routeLength="80.50" waitingTime="0.00" waitingCount="0" stopTime="0.00" timeLoss="3.51" rerouteNo="0" devices="tripinfo_194" vType="DEFAULT_VEHTYPE" speedFactor="1.10" vaporized=""/>
    <tripinfo id="50" depart="18.00" departLane="52_4way_9to4way_16_0" departPos="5.10" departSpeed="0.00" departDelay="2.96" arrival="70.00" arrivalLane="52_4way_9to4way_16_0" arrivalPos="85.60" arrivalSpeed="5.26" duration="52.00" routeLength="80.50" waitingTime="38.00" waitingCount="1" stopTime="0.00" timeLoss="46.13" rerouteNo="0" devices="tripinfo_50" vType="DEFAULT_VEHTYPE" speedFactor="1.01" vaporized=""/>
    <tripinfo id="132" depart="40.00" departLane="79_4way_39to4way_40_0" departPos="5.10" departSpeed="0.00" departDelay="0.31" arrival="70.00" arrivalLane="75_4way_40to4way_33_0" arrivalPos="85.60" arrivalSpeed="4.69" duration="30.00" routeLength="175.13" waitingTime="5.00" waitingCount="1" stopTime="0.00" timeLoss="14.47" rerouteNo="0" devices="tripinfo_132" vType="DEFAULT_VEHTYPE" speedFactor="0.86" vaporized=""/>
    <tripinfo id="99" depart="30.00" departLane="20_3way_4to3way_3_0" departPos="5.10" departSpeed="0.00" departDelay="0.23" arrival="72.00" arrivalLane="10_3way_3to3way_2_0" arrivalPos="85.60" arrivalSpeed="6.25" duration="42.00" routeLength="180.50" waitingTime="21.00" waitingCount="1" stopTime="0.00" timeLoss="28.57" rerouteNo="0" devices="tripinfo_99" vType="DEFAULT_VEHTYPE" speedFactor="0.97" vaporized=""/>
    <tripinfo id="18" depart="6.00" departLane="8_3way_7to3way_14_0" departPos="5.10" departSpeed="0.00" departDelay="0.59" arrival="73.00" arrivalLane="14_3way_21to3way_28_0" arrivalPos="85.60" arrivalSpeed="6.57" duration="67.00" routeLength="280.50" waitingTime="35.00" waitingCount="1" stopTime="0.00" timeLoss="45.73" rerouteNo="0" devices="tripinfo_18" vType="DEFAULT_VEHTYPE" speedFactor="0.96" vaporized=""/>
    <tripinfo id="80" depart="25.00" departLane="14_3way_28to3way_21_0" departPos="5.10" departSpeed="0.00" departDelay="0.94" arrival="75.00" arrivalLane="2_3way_7to3way_1_0" arrivalPos="188.80" arrivalSpeed="9.60" duration="50.00" routeLength="483.70" waitingTime="0.00" waitingCount="0" stopTime="0.00" timeLoss="4.93" rerouteNo="0" devices="tripinfo_80" vType="DEFAULT_VEHTYPE" speedFactor="0.78" vaporized=""/>
    <tripinfo id="206" depart="65.00" departLane="75_4way_40to4way_33_0" departPos="5.10" departSpeed="0.00" departDelay="3.06" arrival="75.00" arrivalLane="75_4way_40to4way_33_0" arrivalPos="85.60" arrivalSpeed="12.47" duration="10.00" routeLength="80.50" waitingTime="0.00" waitingCount="0" stopTime="0.00" timeLoss="2.81" rerouteNo="0" devices="tripinfo_206" vType="DEFAULT_VEHTYPE" speedFactor="0.92" vaporized=""/>
    <tripinfo id="107" depart="33.00" departLane="74_4way_39to4way_32_0" departPos="5.10" departSpeed="0.00" departDelay="0.82" arrival="76.00" arrivalLane="69_4way_31to4way_30_0" arrivalPos="85.60" arrivalSpeed="14.51" duration="43.00" routeLength="275.13" waitingTime="13.00" waitingCount="1" stopTime="0.00" timeLoss="24.20" rerouteNo="0" devices="tripinfo_107" vType="DEFAULT_VEHTYPE" speedFactor="1.10" vaporized=""/>
    <tripinfo id="188" depart="57.00" departLane="44_4way_12to4way_11_0" departPos="5.10" departSpeed="0.00" departDelay="0.47" arrival="76.00" arrivalLane="45_4way_11to4way_18_0" arrivalPos="85.60" arrivalSpeed="13.81" duration="19.00" routeLength="175.13" waitingTime="0.00" waitingCount="0" stopTime="0.00" timeLoss="5.25" rerouteNo="0" devices="tripinfo_188" vType="DEFAULT_VEHTYPE" speedFactor="1.00" vaporized=""/>
    <tripinfo id="13" depart="4.00" departLane="7_3way_14to3way_21_0" departPos="5.10" departSpeed="0.00" departDelay="0.09" arrival="77.00" arrivalLane="19_3way_28to4way_29_0" arrivalPos="85.60" arrivalSpeed="13.05" duration="73.00" routeLength="275.13" waitingTime="43.00" waitingCount="1" stopTime="0.00" timeLoss="51.60" rerouteNo="0" devices="tripinfo_13" vType="DEFAULT_VEHTYPE" speedFactor="0.98" vaporized=""/>
    <tripinfo id="42" depart="13.00" departLane="42_4way_10to4way_17_0" departPos="5.10" departSpeed="0.00" departDelay="0.37" arrival="77.00" arrivalLane="30_3way_44to3way_43_0" arrivalPos="85.60" arrivalSpeed="12.85" duration="64.00" routeLength="680.29" waitingTime="1.00" waitingCount="1" stopTime="0.00" timeLoss="12.85" rerouteNo="0" devices="tripinfo_42" vType="DEFAULT_VEHTYPE" speedFactor="0.99" vaporized=""/>
    <tripinfo id="45" depart="14.00" departLane="3_3way_1to4way_8_0" departPos="5.10" departSpeed="0.00" departDelay="0.47" arrival="77.00" arrivalLane="47_4way_15to4way_16_0" arrivalPos="85.60" arrivalSpeed="13.75" duration="63.00" routeLength="275.13" waitingTime="34.00" waitingCount="1" stopTime="0.00" timeLoss="41.91" rerouteNo="0" devices="tripinfo_45" vType="DEFAULT_VEHTYPE" speedFactor="1.00" vaporized=""/>
    <tripinfo id="96" depart="29.00" departLane="2_3way_7to3way_1_0" departPos="5.10" departSpeed="0.00" departDelay="0.13" arrival="77.00" arrivalLane="10_3way_2to3way_3_0" arrivalPos="85.60" arrivalSpeed="12.28" duration="48.00" routeLength="383.70" waitingTime="10.00" waitingCount="1" stopTime="0.00" timeLoss="18.54" rerouteNo="0" devices="tripinfo_96" vType="DEFAULT_VEHTYPE" speedFactor="0.95" vaporized=""/>
    <tripinfo id="106" depart="32.00" departLane="56_4way_25to4way_18_0" departPos="5.10" departSpeed="0.00" departDelay="0.13" arrival="77.00" arrivalLane="50_4way_17to4way_16_0" arrivalPos="85.60" arrivalSpeed="15.89" duration="45.00" routeLength="275.13" waitingTime="13.00" waitingCount="1" stopTime="0.00" timeLoss="26.49" rerouteNo="0" devices="tripinfo_106" vType="DEFAULT_VEHTYPE" speedFactor="1.16" vaporized=""/>
    <tripinfo id="24" depart="8.00" departLane="16_3way_27to3way_34_0" departPos="5.10" departSpeed="0.00" departDelay="0.78" arrival="78.00" arrivalLane="22_3way_34to3way_41_0" arrivalPos="85.60" arrivalSpeed="13.24" duration="70.00" routeLength="180.50" waitingTime="47.00" waitingCount="1" stopTime="0.00" timeLoss="55.75" rerouteNo="0" devices="tripinfo_24" vType="DEFAULT_VEHTYPE" speedFactor="0.97" vaporized=""/>
    <tripinfo id="48" depart="15.00" departLane="73_4way_33to4way_32_0" departPos="5.10" departSpeed="0.00" departDelay="0.57" arrival="78.00" arrivalLane="71_4way_32to4way_31_0" arrivalPos="85.60" arrivalSpeed="11.34" duration="63.00" routeLength="180.50" waitingTime="40.00" waitingCount="1" stopTime="0.00" timeLoss="46.83" rerouteNo="0" devices="tripinfo_48" vType="DEFAULT_VEHTYPE" speedFactor="0.83" vaporized=""/>
    <tripinfo id="136" depart="41.00" departLane="74_4way_39to4way_32_0" departPos="5.10" departSpeed="0.00" departDelay="0.10" arrival="79.00" arrivalLane="69_4way_31to4way_30_0" arrivalPos="85.60" arrivalSpeed="13.21" duration="38.00" routeLength="275.13" waitingTime="5.00" waitingCount="1" stopTime="0.00" timeLoss="17.55" rerouteNo="0" devices="tripinfo_136" vType="DEFAULT_VEHTYPE" speedFactor="1.01" vaporized=""/>
    <tripinfo id="93" depart="28.00" departLane="66_4way_26to4way_33_0" departPos="5.10" departSpeed="0.00" departDelay="0.03" arrival="80.00" arrivalLane="23_4way_33to3way_34_0" arrivalPos="85.60" arrivalSpeed="13.86" duration="52.00" routeLength="175.13" waitingTime="28.00" waitingCount="1" stopTime="0.00" timeLoss="38.11" rerouteNo="0" devices="tripinfo_93" vType="DEFAULT_VEHTYPE" speedFactor="1.00" vaporized=""/>
    <tripinfo id="112" depart="34.00" departLane="28_3way_41to3way_47_0" departPos="5.10" departSpeed="0.00" departDelay="0.32" arrival="80.00" arrivalLane="36_3way_47to3way_46_0" arrivalPos="85.60" arrivalSpeed="11.24" duration="46.00" routeLength="283.70" waitingTime="15.00" waitingCount="1" stopTime="0.00" timeLoss="24.39" rerouteNo="0" devices="tripinfo_112" vType="DEFAULT_VEHTYPE" speedFactor="0.95" vaporized=""/>
    <tripinfo id="78" depart="24.00" departLane="65_4way_32to4way_25_0" departPos="5.10" departSpeed="0.00" departDelay="0.54" arrival="81.00" arrivalLane="62_4way_25to4way_24_0" arrivalPos="85.60" arrivalSpeed="14.28" duration="57.00" routeLength="175.13" waitingTime="34.00" waitingCount="1" stopTime="0.00" timeLoss="44.14" rerouteNo="0" devices="tripinfo_78" vType="DEFAULT_VEHTYPE" speedFactor="1.03" vaporized=""/>
    <tripinfo id="149" depart="45.00" departLane="21_3way_3to4way_10_0" departPos="5.10" departSpeed="0.00" departDelay="0.20" arrival="81.00" arrivalLane="6_4way_12to3way_13_0" arrivalPos="85.60" arrivalSpeed="12.52" duration="36.00" routeLength="375.13" waitingTime="0.00" waitingCount="0" stopTime="0.00" timeLoss="6.43" rerouteNo="0" devices="tripinfo_149" vType="DEFAULT_VEHTYPE" speedFactor="0.95" vaporized=""/>
    <tripinfo id="109" depart="35.00" departLane="66_4way_26to4way_33_0" departPos="5.10" departSpeed="0.00" departDelay="2.22" arrival="82.00" arrivalLane="23_4way_33to3way_34_0" arrivalPos="85.60" arrivalSpeed="13.55" duration="47.00" routeLength="175.13" waitingTime="24.00" waitingCount="1" stopTime="0.00" timeLoss="33.53" rerouteNo="0" devices="tripinfo_109" vType="DEFAULT_VEHTYPE" speedFactor="1.04" vaporized=""/>
    <tripinfo id="33" depart="10.00" departLane="61_4way_23to4way_30_0" departPos="5.10" departSpeed="0.00" departDelay="0.08" arrival="83.00" arrivalLane="73_4way_32to4way_33_0" arrivalPos="85.60" arrivalSpeed="14.23" duration="73.00" routeLength="375.13" waitingTime="35.00" waitingCount="1" stopTime="0.00" timeLoss="46.78" rerouteNo="0" devices="tripinfo_33" vType="DEFAULT_VEHTYPE" speedFactor="1.06" vaporized=""/>
    <tripinfo id="129" depart="43.00" departLane="41_4way_11to4way_10_0" departPos="5.10" departSpeed="0.00" departDelay="4.21" arrival="83.00" arrivalLane="41_4way_11to4way_10_0" arrivalPos="85.60" arrivalSpeed="7.38" duration="40.00" routeLength="80.50" waitingTime="21.00" waitingCount="1" stopTime="0.00" timeLoss="34.55" rerouteNo="0" devices="tripinfo_129" vType="DEFAULT_VEHTYPE" speedFactor="1.14" vaporized=""/>
    <tripinfo id="57" depart="19.00" departLane="58_4way_22to4way_23_0" departPos="5.10" departSpeed="0.00" departDelay="1.86" arrival="84.00" arrivalLane="60_4way_23to4way_24_0" arrivalPos="85.60" arrivalSpeed="8.12" duration="65.00" routeLength="180.50" waitingTime="34.00" waitingCount="2" stopTime="0.00" timeLoss="51.14" rerouteNo="0" devices="tripinfo_57" vType="DEFAULT_VEHTYPE" speedFactor="0.97" vaporized=""/>
    <tripinfo id="25" depart="8.00" departLane="37_3way_46to4way_39_0" departPos="5.10" departSpeed="0.00" departDelay="0.48" arrival="85.00" arrivalLane="77_4way_38to4way_37_0" arrivalPos="85.60" arrivalSpeed="12.29" duration="77.00" routeLength="275.13" waitingTime="45.00" waitingCount="1" stopTime="0.00" timeLoss="55.21" rerouteNo="0" devices="tripinfo_25" vType="DEFAULT_VEHTYPE" speedFactor="0.95" vaporized=""/>
    <tripinfo id="141" depart="43.00" departLane="61_4way_30to4way_23_0" departPos="5.10" departSpeed="0.00" departDelay="0.60" arrival="86.00" arrivalLane="58_4way_23to4way_22_0" arrivalPos="85.60" arrivalSpeed="12.75" duration="43.00" routeLength="175.13" waitingTime="17.00" waitingCount="1" stopTime="0.00" timeLoss="29.41" rerouteNo="0" devices="tripinfo_141" vType="DEFAULT_VEHTYPE" speedFactor="0.99" vaporized=""/>
    <tripinfo id="58" depart="23.00" departLane="69_4way_30to4way_31_0" departPos="5.10" departSpeed="0.00" departDelay="5.56" arrival="87.00" arrivalLane="73_4way_32to4way_33_0" arrivalPos="85.60" arrivalSpeed="12.40" duration="64.00" routeLength="280.50" waitingTime="33.00" waitingCount="1" stopTime="0.00" timeLoss="41.91" rerouteNo="0" devices="tripinfo_58" vType="DEFAULT_VEHTYPE" speedFactor="0.93" vaporized=""/>
    <tripinfo id="103" depart="31.00" departLane="37_3way_46to4way_39_0" departPos="5.10" departSpeed="0.00" departDelay="0.03" arrival="87.00" arrivalLane="77_4way_38to4way_37_0" arrivalPos="85.60" arrivalSpeed="15.61" duration="56.00" routeLength="275.13" waitingTime="27.00" waitingCount="1" stopTime="0.00" timeLoss="38.26" rerouteNo="0" devices="tripinfo_103" vType="DEFAULT_VEHTYPE" speedFactor="1.15" vaporized=""/>
    <tripinfo id="203" depart="62.00" departLane="36_3way_46to3way_47_0" departPos="5.10" departSpeed="0.00" departDelay="0.96" arrival="87.00" arrivalLane="28_3way_47to3way_41_0" arrivalPos="182.40" arrivalSpeed="12.31" duration="25.00" routeLength="277.30" waitingTime="0.00" waitingCount="0" stopTime="0.00" timeLoss="3.53" rerouteNo="0" devices="tripinfo_203" vType="DEFAULT_VEHTYPE" speedFactor="0.95" vaporized=""/>
    <tripinfo id="75" depart="23.00" departLane="52_4way_9to4way_16_0" departPos="5.10" departSpeed="0.00" departDelay="0.45" arrival="88.00" arrivalLane="53_4way_17to4way_18_0" arrivalPos="85.60" arrivalSpeed="14.84" duration="65.00" routeLength="275.13" waitingTime="35.00" waitingCount="1" stopTime="0.00" timeLoss="45.83" rerouteNo="0" devices="tripinfo_75" vType="DEFAULT_VEHTYPE" speedFactor="1.09" vaporized=""/>
    <tripinfo id="86" depart="26.00" departLane="11_3way_2to4way_9_0" departPos="5.10" departSpeed="0.00" departDelay="0.14" arrival="88.00" arrivalLane="50_4way_16to4way_17_0" arrivalPos="85.60" arrivalSpeed="14.30" duration="62.00" routeLength="275.13" waitingTime="30.00" waitingCount="1" stopTime="0.00" timeLoss="42.92" rerouteNo="0" devices="tripinfo_86" vType="DEFAULT_VEHTYPE" speedFactor="1.06" vaporized=""/>
    <tripinfo id="131" depart="40.00" departLane="49_4way_15to4way_8_0" departPos="5.10" departSpeed="0.00" departDelay="0.61" arrival="88.00" arrivalLane="10_3way_2to3way_3_0" arrivalPos="85.60" arrivalSpeed="11.03" duration="48.00" routeLength="380.29" waitingTime="6.00" waitingCount="1" stopTime="0.00" timeLoss="13.30" rerouteNo="0" devices="tripinfo_131" vType="DEFAULT_VEHTYPE" speedFactor="0.82" vaporized=""/>
    <tripinfo id="199" depart="60.00" departLane="36_3way_47to3way_46_0" departPos="5.10" departSpeed="0.00" departDelay="0.16" arrival="88.00" arrivalLane="30_3way_44to3way_43_0" arrivalPos="85.60" arrivalSpeed="15.78" duration="28.00" routeLength="380.50" waitingTime="0.00" waitingCount="0" stopTime="0.00" timeLoss="4.67" rerouteNo="0" devices="tripinfo_199" vType="DEFAULT_VEHTYPE" speedFactor="1.20" vaporized=""/>
    <tripinfo id="27" depart="10.00" departLane="39_3way_5to4way_12_0" departPos="5.10" departSpeed="0.00" departDelay="1.88" arrival="89.00" arrivalLane="17_4way_26to3way_27_0" arrivalPos="85.60" arrivalSpeed="13.88" duration="79.00" routeLength="375.13" waitingTime="39.00" waitingCount="1" stopTime="0.00" timeLoss="51.36" rerouteNo="0" devices="tripinfo_27" vType="DEFAULT_VEHTYPE" speedFactor="1.03" vaporized=""/>
    <tripinfo id="65" depart="20.00" departLane="70_4way_37to4way_30_0" departPos="5.10" departSpeed="0.00" departDelay="0.45" arrival="89.00" arrivalLane="52_4way_16to4way_9_0" arrivalPos="85.60" arrivalSpeed="9.86" duration="69.00" routeLength="380.50" waitingTime="32.00" waitingCount="1" stopTime="0.00" timeLoss="46.03" rerouteNo="0" devices="tripinfo_65" vType="DEFAULT_VEHTYPE" speedFactor="1.20" vaporized=""/>
    <tripinfo id="51" depart="16.00" departLane="66_4way_26to4way_33_0" departPos="5.10" departSpeed="0.00" departDelay="0.66" arrival="90.00" arrivalLane="38_4way_40to3way_47_0" arrivalPos="85.60" arrivalSpeed="10.06" duration="74.00" routeLength="280.50" waitingTime="38.00" waitingCount="1" stopTime="0.00" timeLoss="46.23" rerouteNo="0" devices="tripinfo_51" vType="DEFAULT_VEHTYPE" speedFactor="0.74" vaporized=""/>
    <tripinfo id="119" depart="39.00" departLane="15_3way_21to4way_22_0" departPos="5.10" departSpeed="0.00" departDelay="3.22" arrival="90.00" arrivalLane="60_4way_23to4way_24_0" arrivalPos="85.60" arrivalSpeed="9.87" duration="51.00" routeLength="280.50" waitingTime="11.00" waitingCount="2" stopTime="0.00" timeLoss="28.58" rerouteNo="0" devices="tripinfo_119" vType="DEFAULT_VEHTYPE" speedFactor="0.90" vaporized=""/>
    <tripinfo id="134" depart="41.00" departLane="66_4way_26to4way_33_0" departPos="5.10" departSpeed="0.00" departDelay="0.71" arrival="92.00" arrivalLane="38_4way_40to3way_47_0" arrivalPos="85.60" arrivalSpeed="12.79" duration="51.00" routeLength="280.50" waitingTime="18.00" waitingCount="1" stopTime="0.00" timeLoss="30.10" rerouteNo="0" devices="tripinfo_134" vType="DEFAULT_VEHTYPE" speedFactor="1.00" vaporized=""/>
    <tripinfo id="269" depart="83.00" departLane="53_4way_18to4way_17_0" departPos="5.10" departSpeed="0.00" departDelay="2.11" arrival="92.00" arrivalLane="53_4way_18to4way_17_0" arrivalPos="85.60" arrivalSpeed="14.84" duration="9.00" routeLength="80.50" waitingTime="0.00" waitingCount="0" stopTime="0.00" timeLoss="3.37" rerouteNo="0" devices="tripinfo_269" vType="DEFAULT_VEHTYPE" speedFactor="1.11" vaporized=""/>
    <tripinfo id="200" depart="61.00" departLane="11_3way_2to4way_9_0" departPos="5.10" departSpeed="0.00" departDelay="0.86" arrival="93.00" arrivalLane="51_4way_16to4way_23_0" arrivalPos="85.60" arrivalSpeed="12.28" duration="32.00" routeLength="280.50" waitingTime="0.00" waitingCount="0" stopTime="0.00" timeLoss="10.34" rerouteNo="0" devices="tripinfo_200" vType="DEFAULT_VEHTYPE" speedFactor="0.96" vaporized=""/>
    <tripinfo id="37" depart="12.00" departLane="7_3way_14to3way_21_0" departPos="5.10" departSpeed="0.00" departDelay="0.87" arrival="94.00" arrivalLane="24_3way_35to3way_43_0" arrivalPos="182.40" arrivalSpeed="13.72" duration="82.00" routeLength="477.30" waitingTime="36.00" waitingCount="1" stopTime="0.00" timeLoss="47.19" rerouteNo="0" devices="tripinfo_37" vType="DEFAULT_VEHTYPE" speedFactor="0.99" vaporized=""/>
    <tripinfo id="164" depart="50.00" departLane="18_3way_28to3way_35_0" departPos="5.10" departSpeed="0.00" departDelay="0.68" arrival="94.00" arrivalLane="34_3way_45to3way_46_0" arrivalPos="85.60" arrivalSpeed="14.10" duration="44.00" routeLength="577.30" waitingTime="0.00" waitingCount="0" stopTime="0.00" timeLoss="6.02" rerouteNo="0" devices="tripinfo_164" vType="DEFAULT_VEHTYPE" speedFactor="1.11" vaporized=""/>
    <tripinfo id="247" depart="78.00" departLane="69_4way_31to4way_30_0" departPos="5.10" departSpeed="0.00" departDelay="3.73" arrival="94.00" arrivalLane="67_4way_30to4way_29_0" arrivalPos="85.60" arrivalSpeed="13.73" duration="16.00" routeLength="180.50" waitingTime="0.00" waitingCount="0" stopTime="0.00" timeLoss="3.66" rerouteNo="0" devices="tripinfo_247" vType="DEFAULT_VEHTYPE" speedFactor="1.07" vaporized=""/>
    <tripinfo id="277" depart="84.00" departLane="79_4way_39to4way_40_0" departPos="5.10" departSpeed="0.00" departDelay="0.71" arrival="94.00" arrivalLane="79_4way_39to4way_40_0" arrivalPos="85.60" arrivalSpeed="11.74" duration="10.00" routeLength="80.50" waitingTime="0.00" waitingCount="0" stopTime="0.00" timeLoss="2.57" rerouteNo="0" devices="tripinfo_277" vType="DEFAULT_VEHTYPE" speedFactor="0.88" vaporized=""/>
    <tripinfo id="20" depart="7.00" departLane="4_3way_13to3way_20_0" departPos="5.10" departSpeed="0.00" departDelay="0.99" arrival="95.00" arrivalLane="22_3way_34to3way_41_0" arrivalPos="85.60" arrivalSpeed="11.51" duration="88.00" routeLength="380.50" waitingTime="47.00" waitingCount="1" stopTime="0.00" timeLoss="56.58" rerouteNo="0" devices="tripinfo_20" vType="DEFAULT_VEHTYPE" speedFactor="0.89" vaporized=""/>
    <tripinfo id="23" depart="7.00" departLane="39_3way_5to4way_12_0" departPos="5.10" departSpeed="0.00" departDelay="0.08" arrival="95.00" arrivalLane="75_4way_33to4way_40_0" arrivalPos="85.60" arrivalSpeed="11.06" duration="88.00" routeLength="480.50" waitingTime="39.00" waitingCount="1" stopTime="0.00" timeLoss="48.08" rerouteNo="0" devices="tripinfo_23" vType="DEFAULT_VEHTYPE" speedFactor="0.87" vaporized=""/>