<?xml version="1.0" encoding="UTF-8"?>

<!-- generated on 2023-07-28 00:48:59 by Eclipse SUMO sumo Version 1.12.0
<configuration xmlns:xsi="http://www.w3.org/2001/XMLSchema-instance" xsi:noNamespaceSchemaLocation="http://sumo.dlr.de/xsd/sumoConfiguration.xsd">

    <input>
        <net-file value="../../data_generation/sq.net.xml"/>
        <route-files value="../../data_generation/sq.rou.xml"/>
    </input>

    <output>
        <tripinfo-output value="tripinfo.xml"/>
        <statistic-output value="statistic.xml"/>
    </output>

    <time>
        <begin value="0"/>
        <end value="3600"/>
    </time>

    <processing>
        <time-to-teleport value="-1"/>
    </processing>

    <traci_server>
        <remote-port value="46301"/>
    </traci_server>

    <random_number>
        <seed value="1395"/>
    </random_number>

    <gui_only>
        <gui-settings-file value="../../data_generation/view_HY_0402.xml"/>
    </gui_only>

</configuration>
-->

<tripinfos xmlns:xsi="http://www.w3.org/2001/XMLSchema-instance" xsi:noNamespaceSchemaLocation="http://sumo.dlr.de/xsd/tripinfo_file.xsd">
    <tripinfo id="7" depart="2.00" departLane="34_3way_7to3way_6_0" departPos="5.10" departSpeed="0.00" departDelay="0.06" arrival="12.00" arrivalLane="34_3way_7to3way_6_0" arrivalPos="85.60" arrivalSpeed="13.16" duration="10.00" routeLength="80.50" waitingTime="0.00" waitingCount="0" stopTime="0.00" timeLoss="3.25" rerouteNo="0" devices="tripinfo_7" vType="DEFAULT_VEHTYPE" speedFactor="0.95" vaporized=""/>
    <tripinfo id="9" depart="3.00" departLane="104_4way_42to4way_41_0" departPos="5.10" departSpeed="0.00" departDelay="0.50" arrival="13.00" arrivalLane="104_4way_42to4way_41_0" arrivalPos="85.60" arrivalSpeed="12.23" duration="10.00" routeLength="80.50" waitingTime="0.00" waitingCount="0" stopTime="0.00" timeLoss="2.68" rerouteNo="0" devices="tripinfo_9" vType="DEFAULT_VEHTYPE" speedFactor="0.91" vaporized=""/>
    <tripinfo id="38" depart="11.00" departLane="21_4way_37to3way_36_0" departPos="5.10" departSpeed="0.00" departDelay="0.45" arrival="21.00" arrivalLane="21_4way_37to3way_36_0" arrivalPos="85.60" arrivalSpeed="13.47" duration="10.00" routeLength="80.50" waitingTime="0.00" waitingCount="0" stopTime="0.00" timeLoss="3.31" rerouteNo="0" devices="tripinfo_38" vType="DEFAULT_VEHTYPE" speedFactor="1.00" vaporized=""/>
    <tripinfo id="16" depart="5.00" departLane="62_4way_21to4way_12_0" departPos="5.10" departSpeed="0.00" departDelay="0.56" arrival="25.00" arrivalLane="59_4way_12to4way_11_0" arrivalPos="85.60" arrivalSpeed="11.35" duration="20.00" routeLength="175.13" waitingTime="0.00" waitingCount="0" stopTime="0.00" timeLoss="5.50" rerouteNo="0" devices="tripinfo_16" vType="DEFAULT_VEHTYPE" speedFactor="0.90" vaporized=""/>
    <tripinfo id="51" depart="15.00" departLane="88_4way_30to4way_39_0" departPos="5.10" departSpeed="0.00" departDelay="0.84" arrival="26.00" arrivalLane="88_4way_30to4way_39_0" arrivalPos="85.60" arrivalSpeed="9.57" duration="11.00" routeLength="80.50" waitingTime="0.00" waitingCount="0" stopTime="0.00" timeLoss="2.33" rerouteNo="0" devices="tripinfo_51" vType="DEFAULT_VEHTYPE" speedFactor="0.74" vaporized=""/>
    <tripinfo id="35" depart="10.00" departLane="23_3way_4to4way_13_0" departPos="5.10" departSpeed="0.00" departDelay="0.28" arrival="29.00" arrivalLane="63_4way_13to4way_14_0" arrivalPos="85.60" arrivalSpeed="12.60" duration="19.00" routeLength="175.13" waitingTime="0.00" waitingCount="0" stopTime="0.00" timeLoss="4.53" rerouteNo="0" devices="tripinfo_35" vType="DEFAULT_VEHTYPE" speedFactor="0.94" vaporized=""/>
    <tripinfo id="71" depart="20.00" departLane="6_4way_16to3way_17_0" departPos="5.10" departSpeed="0.00" departDelay="0.28" arrival="29.00" arrivalLane="6_4way_16to3way_17_0" arrivalPos="85.60" arrivalSpeed="15.32" duration="9.00" routeLength="80.50" waitingTime="0.00" waitingCount="0" stopTime="0.00" timeLoss="3.53" rerouteNo="0" devices="tripinfo_71" vType="DEFAULT_VEHTYPE" speedFactor="1.13" vaporized=""/>
    <tripinfo id="13" depart="4.00" departLane="95_4way_34to4way_43_0" departPos="5.10" departSpeed="0.00" departDelay="0.39" arrival="31.00" arrivalLane="31_4way_52to3way_53_0" arrivalPos="85.60" arrivalSpeed="13.27" duration="27.00" routeLength="275.13" waitingTime="0.00" waitingCount="0" stopTime="0.00" timeLoss="5.50" rerouteNo="0" devices="tripinfo_13" vType="DEFAULT_VEHTYPE" speedFactor="0.98" vaporized=""/>
    <tripinfo id="65" depart="19.00" departLane="88_4way_39to4way_30_0" departPos="5.10" departSpeed="0.00" departDelay="0.95" arrival="35.00" arrivalLane="75_4way_30to4way_21_0" arrivalPos="85.60" arrivalSpeed="16.47" duration="16.00" routeLength="180.50" waitingTime="0.00" waitingCount="0" stopTime="0.00" timeLoss="4.15" rerouteNo="0" devices="tripinfo_65" vType="DEFAULT_VEHTYPE" speedFactor="1.20" vaporized=""/>
    <tripinfo id="28" depart="8.00" departLane="12_3way_26to3way_35_0" departPos="5.10" departSpeed="0.00" departDelay="0.22" arrival="39.00" arrivalLane="30_3way_53to3way_62_0" arrivalPos="85.60" arrivalSpeed="14.19" duration="31.00" routeLength="380.50" waitingTime="0.00" waitingCount="0" stopTime="0.00" timeLoss="4.09" rerouteNo="0" devices="tripinfo_28" vType="DEFAULT_VEHTYPE" speedFactor="1.03" vaporized=""/>
    <tripinfo id="81" depart="23.00" departLane="2_3way_9to3way_1_0" departPos="5.10" departSpeed="0.00" departDelay="0.51" arrival="40.00" arrivalLane="2_3way_9to3way_1_0" arrivalPos="188.80" arrivalSpeed="14.10" duration="17.00" routeLength="183.70" waitingTime="0.00" waitingCount="0" stopTime="0.00" timeLoss="3.83" rerouteNo="0" devices="tripinfo_81" vType="DEFAULT_VEHTYPE" speedFactor="1.05" vaporized=""/>
    <tripinfo id="116" depart="34.00" departLane="57_4way_11to4way_10_0" departPos="5.10" departSpeed="0.00" departDelay="1.79" arrival="43.00" arrivalLane="57_4way_11to4way_10_0" arrivalPos="85.60" arrivalSpeed="13.66" duration="9.00" routeLength="80.50" waitingTime="0.00" waitingCount="0" stopTime="0.00" timeLoss="3.15" rerouteNo="0" devices="tripinfo_116" vType="DEFAULT_VEHTYPE" speedFactor="0.99" vaporized=""/>
    <tripinfo id="124" depart="35.00" departLane="79_4way_23to4way_32_0" departPos="5.10" departSpeed="0.00" departDelay="0.56" arrival="44.00" arrivalLane="79_4way_23to4way_32_0" arrivalPos="85.60" arrivalSpeed="15.04" duration="9.00" routeLength="80.50" waitingTime="0.00" waitingCount="0" stopTime="0.00" timeLoss="3.46" rerouteNo="0" devices="tripinfo_124" vType="DEFAULT_VEHTYPE" speedFactor="1.11" vaporized=""/>
    <tripinfo id="96" depart="27.00" departLane="45_3way_74to3way_75_0" departPos="5.10" departSpeed="0.00" departDelay="0.34" arrival="46.00" arrivalLane="47_3way_75to3way_76_0" arrivalPos="85.60" arrivalSpeed="6.96" duration="19.00" routeLength="180.50" waitingTime="0.00" waitingCount="0" stopTime="0.00" timeLoss="5.22" rerouteNo="0" devices="tripinfo_96" vType="DEFAULT_VEHTYPE" speedFactor="0.95" vaporized=""/>
    <tripinfo id="25" depart="7.00" departLane="36_3way_62to3way_71_0" departPos="5.10" departSpeed="0.00" departDelay="0.06" arrival="49.00" arrivalLane="51_3way_78to3way_77_0" arrivalPos="85.60" arrivalSpeed="11.92" duration="42.00" routeLength="483.70" waitingTime="0.00" waitingCount="0" stopTime="0.00" timeLoss="4.82" rerouteNo="0" devices="tripinfo_25" vType="DEFAULT_VEHTYPE" speedFactor="0.95" vaporized=""/>
    <tripinfo id="147" depart="41.00" departLane="108_4way_43to4way_52_0" departPos="5.10" departSpeed="0.00" departDelay="0.18" arrival="50.00" arrivalLane="108_4way_43to4way_52_0" arrivalPos="85.60" arrivalSpeed="12.16" duration="9.00" routeLength="80.50" waitingTime="0.00" waitingCount="0" stopTime="0.00" timeLoss="2.86" rerouteNo="0" devices="tripinfo_147" vType="DEFAULT_VEHTYPE" speedFactor="0.97" vaporized=""/>
    <tripinfo id="85" depart="24.00" departLane="49_3way_76to3way_77_0" departPos="5.10" departSpeed="0.00" departDelay="0.39" arrival="52.00" arrivalLane="131_4way_68to4way_59_0" arrivalPos="85.60" arrivalSpeed="15.47" duration="28.00" routeLength="275.13" waitingTime="0.00" waitingCount="0" stopTime="0.00" timeLoss="9.66" rerouteNo="0" devices="tripinfo_85" vType="DEFAULT_VEHTYPE" speedFactor="1.12" vaporized=""/>
    <tripinfo id="46" depart="13.00" departLane="11_3way_2to4way_11_0" departPos="5.10" departSpeed="0.00" departDelay="0.23" arrival="54.00" arrivalLane="98_4way_38to4way_39_0" arrivalPos="85.60" arrivalSpeed="14.27" duration="41.00" routeLength="475.13" waitingTime="0.00" waitingCount="0" stopTime="0.00" timeLoss="7.40" rerouteNo="0" devices="tripinfo_46" vType="DEFAULT_VEHTYPE" speedFactor="1.04" vaporized=""/>
    <tripinfo id="103" depart="29.00" departLane="51_3way_77to3way_78_0" departPos="5.10" departSpeed="0.00" departDelay="0.40" arrival="54.00" arrivalLane="55_3way_79to4way_70_0" arrivalPos="85.60" arrivalSpeed="15.12" duration="25.00" routeLength="275.13" waitingTime="0.00" waitingCount="0" stopTime="0.00" timeLoss="6.65" rerouteNo="0" devices="tripinfo_103" vType="DEFAULT_VEHTYPE" speedFactor="1.15" vaporized=""/>
    <tripinfo id="113" depart="32.00" departLane="49_3way_77to3way_76_0" departPos="5.10" departSpeed="0.00" departDelay="0.62" arrival="55.00" arrivalLane="45_3way_75to3way_74_0" arrivalPos="85.60" arrivalSpeed="14.42" duration="23.00" routeLength="280.50" waitingTime="0.00" waitingCount="0" stopTime="0.00" timeLoss="4.50" rerouteNo="0" devices="tripinfo_113" vType="DEFAULT_VEHTYPE" speedFactor="1.10" vaporized=""/>
    <tripinfo id="160" depart="45.00" departLane="103_4way_49to4way_40_0" departPos="5.10" departSpeed="0.00" departDelay="0.57" arrival="55.00" arrivalLane="103_4way_49to4way_40_0" arrivalPos="85.60" arrivalSpeed="11.09" duration="10.00" routeLength="80.50" waitingTime="0.00" waitingCount="0" stopTime="0.00" timeLoss="3.36" rerouteNo="0" devices="tripinfo_160" vType="DEFAULT_VEHTYPE" speedFactor="0.88" vaporized=""/>
    <tripinfo id="100" depart="28.00" departLane="28_3way_6to3way_5_0" departPos="5.10" departSpeed="0.00" departDelay="0.23" arrival="56.00" arrivalLane="10_3way_3to3way_2_0" arrivalPos="85.60" arrivalSpeed="15.62" duration="28.00" routeLength="380.50" waitingTime="0.00" waitingCount="0" stopTime="0.00" timeLoss="4.76" rerouteNo="0" devices="tripinfo_100" vType="DEFAULT_VEHTYPE" speedFactor="1.20" vaporized=""/>
    <tripinfo id="133" depart="37.00" departLane="120_4way_51to4way_60_0" departPos="5.10" departSpeed="0.00" departDelay="0.07" arrival="56.00" arrivalLane="132_4way_60to4way_61_0" arrivalPos="85.60" arrivalSpeed="13.59" duration="19.00" routeLength="175.13" waitingTime="0.00" waitingCount="0" stopTime="0.00" timeLoss="5.76" rerouteNo="0" devices="tripinfo_133" vType="DEFAULT_VEHTYPE" speedFactor="1.01" vaporized=""/>
    <tripinfo id="126" depart="35.00" departLane="88_4way_39to4way_30_0" departPos="5.10" departSpeed="0.00" departDelay="0.01" arrival="59.00" arrivalLane="62_4way_21to4way_12_0" arrivalPos="85.60" arrivalSpeed="13.29" duration="24.00" routeLength="280.50" waitingTime="0.00" waitingCount="0" stopTime="0.00" timeLoss="3.92" rerouteNo="0" devices="tripinfo_126" vType="DEFAULT_VEHTYPE" speedFactor="1.01" vaporized=""/>
    <tripinfo id="20" depart="6.00" departLane="22_3way_5to3way_4_0" departPos="5.10" departSpeed="0.00" departDelay="0.45" arrival="60.00" arrivalLane="103_4way_40to4way_49_0" arrivalPos="85.60" arrivalSpeed="11.11" duration="54.00" routeLength="575.13" waitingTime="0.00" waitingCount="0" stopTime="0.00" timeLoss="7.09" rerouteNo="0" devices="tripinfo_20" vType="DEFAULT_VEHTYPE" speedFactor="0.89" vaporized=""/>
    <tripinfo id="110" depart="31.00" departLane="108_4way_43to4way_52_0" departPos="5.10" departSpeed="0.00" departDelay="0.45" arrival="61.00" arrivalLane="55_4way_70to3way_79_0" arrivalPos="85.60" arrivalSpeed="13.67" duration="30.00" routeLength="380.50" waitingTime="0.00" waitingCount="0" stopTime="0.00" timeLoss="3.89" rerouteNo="0" devices="tripinfo_110" vType="DEFAULT_VEHTYPE" speedFactor="1.05" vaporized=""/>
    <tripinfo id="130" depart="37.00" departLane="105_4way_50to4way_41_0" departPos="5.10" departSpeed="0.00" departDelay="0.90" arrival="64.00" arrivalLane="89_4way_32to4way_31_0" arrivalPos="85.60" arrivalSpeed="13.52" duration="27.00" routeLength="275.13" waitingTime="0.00" waitingCount="0" stopTime="0.00" timeLoss="5.89" rerouteNo="0" devices="tripinfo_130" vType="DEFAULT_VEHTYPE" speedFactor="0.98" vaporized=""/>
    <tripinfo id="80" depart="23.00" departLane="94_4way_33to4way_42_0" departPos="5.10" departSpeed="0.00" departDelay="0.78" arrival="65.00" arrivalLane="132_4way_60to4way_61_0" arrivalPos="85.60" arrivalSpeed="9.65" duration="42.00" routeLength="375.13" waitingTime="0.00" waitingCount="0" stopTime="0.00" timeLoss="5.68" rerouteNo="0" devices="tripinfo_80" vType="DEFAULT_VEHTYPE" speedFactor="0.78" vaporized=""/>
    <tripinfo id="94" depart="27.00" departLane="95_4way_34to4way_43_0" departPos="5.10" departSpeed="0.00" departDelay="0.90" arrival="65.00" arrivalLane="55_4way_70to3way_79_0" arrivalPos="85.60" arrivalSpeed="14.53" duration="38.00" routeLength="480.50" waitingTime="0.00" waitingCount="0" stopTime="0.00" timeLoss="5.42" rerouteNo="0" devices="tripinfo_94" vType="DEFAULT_VEHTYPE" speedFactor="1.08" vaporized=""/>
    <tripinfo id="89" depart="25.00" departLane="48_3way_75to4way_66_0" departPos="5.10" departSpeed="0.00" departDelay="0.28" arrival="67.00" arrivalLane="88_4way_39to4way_30_0" arrivalPos="85.60" arrivalSpeed="12.49" duration="42.00" routeLength="480.50" waitingTime="0.00" waitingCount="0" stopTime="0.00" timeLoss="4.40" rerouteNo="0" devices="tripinfo_89" vType="DEFAULT_VEHTYPE" speedFactor="0.93" vaporized=""/>
    <tripinfo id="205" depart="57.00" departLane="134_4way_70to4way_61_0" departPos="5.10" departSpeed="0.00" departDelay="0.07" arrival="67.00" arrivalLane="134_4way_70to4way_61_0" arrivalPos="85.60" arrivalSpeed="12.19" duration="10.00" routeLength="80.50" waitingTime="0.00" waitingCount="0" stopTime="0.00" timeLoss="2.78" rerouteNo="0" devices="tripinfo_205" vType="DEFAULT_VEHTYPE" speedFactor="0.90" vaporized=""/>
    <tripinfo id="171" depart="49.00" departLane="17_3way_3to4way_12_0" departPos="5.10" departSpeed="0.00" departDelay="1.51" arrival="68.00" arrivalLane="61_4way_12to4way_13_0" arrivalPos="85.60" arrivalSpeed="13.96" duration="19.00" routeLength="175.13" waitingTime="0.00" waitingCount="0" stopTime="0.00" timeLoss="6.24" rerouteNo="0" devices="tripinfo_171" vType="DEFAULT_VEHTYPE" speedFactor="1.04" vaporized=""/>
    <tripinfo id="70" depart="20.00" departLane="129_4way_58to4way_67_0" departPos="5.10" departSpeed="0.00" departDelay="0.56" arrival="70.00" arrivalLane="138_4way_67to4way_68_0" arrivalPos="85.60" arrivalSpeed="4.87" duration="50.00" routeLength="175.13" waitingTime="23.00" waitingCount="1" stopTime="0.00" timeLoss="32.01" rerouteNo="0" devices="tripinfo_70" vType="DEFAULT_VEHTYPE" speedFactor="0.75" vaporized=""/>
    <tripinfo id="14" depart="4.00" departLane="97_4way_37to4way_46_0" departPos="5.10" departSpeed="0.00" departDelay="0.11" arrival="73.00" arrivalLane="122_4way_55to4way_56_0" arrivalPos="85.60" arrivalSpeed="8.19" duration="69.00" routeLength="275.13" waitingTime="36.00" waitingCount="1" stopTime="0.00" timeLoss="47.13" rerouteNo="0" devices="tripinfo_14" vType="DEFAULT_VEHTYPE" speedFactor="0.95" vaporized=""/>
    <tripinfo id="26" depart="8.00" departLane="45_3way_74to3way_75_0" departPos="5.10" departSpeed="0.00" departDelay="0.78" arrival="73.00" arrivalLane="74_4way_21to4way_22_0" arrivalPos="85.60" arrivalSpeed="13.42" duration="65.00" routeLength="774.93" waitingTime="0.00" waitingCount="0" stopTime="0.00" timeLoss="8.92" rerouteNo="0" devices="tripinfo_26" vType="DEFAULT_VEHTYPE" speedFactor="1.03" vaporized=""/>
    <tripinfo id="212" depart="59.00" departLane="109_4way_46to4way_47_0" departPos="5.10" departSpeed="0.00" departDelay="0.13" arrival="73.00" arrivalLane="109_4way_46to4way_47_0" arrivalPos="85.60" arrivalSpeed="7.53" duration="14.00" routeLength="80.50" waitingTime="0.00" waitingCount="0" stopTime="0.00" timeLoss="8.00" rerouteNo="0" devices="tripinfo_212" vType="DEFAULT_VEHTYPE" speedFactor="1.00" vaporized=""/>
    <tripinfo id="0" depart="0.00" departLane="129_4way_67to4way_58_0" departPos="5.10" departSpeed="0.00" departDelay="0.00" arrival="74.00" arrivalLane="61_4way_13to4way_12_0" arrivalPos="85.60" arrivalSpeed="8.22" duration="74.00" routeLength="675.13" waitingTime="9.00" waitingCount="1" stopTime="0.00" timeLoss="24.11" rerouteNo="0" devices="tripinfo_0" vType="DEFAULT_VEHTYPE" speedFactor="1.00" vaporized=""/>
    <tripinfo id="17" depart="5.00" departLane="114_4way_57to4way_48_0" departPos="5.10" departSpeed="0.00" departDelay="0.28" arrival="76.00" arrivalLane="10_3way_3to3way_2_0" arrivalPos="85.60" arrivalSpeed="13.39" duration="71.00" routeLength="675.13" waitingTime="11.00" waitingCount="1" stopTime="0.00" timeLoss="23.47" rerouteNo="0" devices="tripinfo_17" vType="DEFAULT_VEHTYPE" speedFactor="1.04" vaporized=""/>
    <tripinfo id="10" depart="3.00" departLane="130_4way_59to4way_60_0" departPos="5.10" departSpeed="0.00" departDelay="0.22" arrival="77.00" arrivalLane="132_4way_60to4way_61_0" arrivalPos="85.60" arrivalSpeed="13.20" duration="74.00" routeLength="180.50" waitingTime="51.00" waitingCount="1" stopTime="0.00" timeLoss="60.61" rerouteNo="0" devices="tripinfo_10" vType="DEFAULT_VEHTYPE" speedFactor="1.04" vaporized=""/>
    <tripinfo id="49" depart="14.00" departLane="108_4way_52to4way_43_0" departPos="5.10" departSpeed="0.00" departDelay="0.39" arrival="77.00" arrivalLane="65_4way_15to4way_14_0" arrivalPos="85.60" arrivalSpeed="13.74" duration="63.00" routeLength="575.13" waitingTime="12.00" waitingCount="1" stopTime="0.00" timeLoss="23.38" rerouteNo="0" devices="tripinfo_49" vType="DEFAULT_VEHTYPE" speedFactor="1.08" vaporized=""/>
    <tripinfo id="60" depart="17.00" departLane="111_4way_48to4way_47_0" departPos="5.10" departSpeed="0.00" departDelay="0.34" arrival="77.00" arrivalLane="109_4way_47to4way_46_0" arrivalPos="85.60" arrivalSpeed="14.27" duration="60.00" routeLength="180.50" waitingTime="37.00" waitingCount="1" stopTime="0.00" timeLoss="47.78" rerouteNo="0" devices="tripinfo_60" vType="DEFAULT_VEHTYPE" speedFactor="1.12" vaporized=""/>
    <tripinfo id="75" depart="21.00" departLane="93_4way_33to4way_34_0" departPos="5.10" departSpeed="0.00" departDelay="0.17" arrival="77.00" arrivalLane="19_4way_34to3way_35_0" arrivalPos="85.60" arrivalSpeed="14.79" duration="56.00" routeLength="180.50" waitingTime="34.00" waitingCount="1" stopTime="0.00" timeLoss="43.11" rerouteNo="0" devices="tripinfo_75" vType="DEFAULT_VEHTYPE" speedFactor="1.09" vaporized=""/>
    <tripinfo id="167" depart="47.00" departLane="16_3way_4to3way_3_0" departPos="5.10" departSpeed="0.00" departDelay="0.62" arrival="77.00" arrivalLane="11_3way_2to4way_11_0" arrivalPos="85.60" arrivalSpeed="11.63" duration="30.00" routeLength="275.13" waitingTime="0.00" waitingCount="0" stopTime="0.00" timeLoss="5.52" rerouteNo="0" devices="tripinfo_167" vType="DEFAULT_VEHTYPE" speedFactor="0.85" vaporized=""/>
    <tripinfo id="172" depart="50.00" departLane="109_4way_47to4way_46_0" departPos="5.10" departSpeed="0.00" departDelay="2.24" arrival="77.00" arrivalLane="110_4way_46to4way_55_0" arrivalPos="85.60" arrivalSpeed="12.60" duration="27.00" routeLength="175.13" waitingTime="4.00" waitingCount="1" stopTime="0.00" timeLoss="12.18" rerouteNo="0" devices="tripinfo_172" vType="DEFAULT_VEHTYPE" speedFactor="0.92" vaporized=""/>
    <tripinfo id="176" depart="49.00" departLane="54_4way_69to3way_78_0" departPos="5.10" departSpeed="0.00" departDelay="0.12" arrival="77.00" arrivalLane="53_3way_78to3way_79_0" arrivalPos="85.60" arrivalSpeed="13.14" duration="28.00" routeLength="175.13" waitingTime="4.00" waitingCount="1" stopTime="0.00" timeLoss="13.97" rerouteNo="0" devices="tripinfo_176" vType="DEFAULT_VEHTYPE" speedFactor="0.97" vaporized=""/>
    <tripinfo id="31" depart="10.00" departLane="6_3way_17to4way_16_0" departPos="5.10" departSpeed="0.00" departDelay="1.39" arrival="78.00" arrivalLane="67_4way_16to4way_15_0" arrivalPos="85.60" arrivalSpeed="15.25" duration="68.00" routeLength="180.50" waitingTime="47.00" waitingCount="1" stopTime="0.00" timeLoss="55.96" rerouteNo="0" devices="tripinfo_31" vType="DEFAULT_VEHTYPE" speedFactor="1.11" vaporized=""/>
    <tripinfo id="112" depart="32.00" departLane="66_4way_14to4way_23_0" departPos="5.10" departSpeed="0.00" departDelay="0.90" arrival="78.00" arrivalLane="93_4way_33to4way_34_0" arrivalPos="85.60" arrivalSpeed="12.14" duration="46.00" routeLength="375.13" waitingTime="5.00" waitingCount="1" stopTime="0.00" timeLoss="16.19" rerouteNo="0" devices="tripinfo_112" vType="DEFAULT_VEHTYPE" speedFactor="0.95" vaporized=""/>
    <tripinfo id="202" depart="59.00" departLane="45_3way_74to3way_75_0" departPos="5.10" departSpeed="0.00" departDelay="2.90" arrival="78.00" arrivalLane="47_3way_75to3way_76_0" arrivalPos="85.60" arrivalSpeed="10.70" duration="19.00" routeLength="180.50" waitingTime="0.00" waitingCount="0" stopTime="0.00" timeLoss="4.45" rerouteNo="0" devices="tripinfo_202" vType="DEFAULT_VEHTYPE" speedFactor="0.90" vaporized=""/>
    <tripinfo id="57" depart="17.00" departLane="115_4way_49to4way_50_0" departPos="5.10" departSpeed="0.00" departDelay="1.17" arrival="79.00" arrivalLane="117_4way_50to4way_51_0" arrivalPos="85.60" arrivalSpeed="12.85" duration="62.00" routeLength="180.50" waitingTime="39.00" waitingCount="1" stopTime="0.00" timeLoss="48.01" rerouteNo="0" devices="tripinfo_57" vType="DEFAULT_VEHTYPE" speedFactor="0.97" vaporized=""/>
    <tripinfo id="169" depart="47.00" departLane="27_3way_45to4way_46_0" departPos="5.10" departSpeed="0.00" departDelay="0.07" arrival="80.00" arrivalLane="109_4way_46to4way_47_0" arrivalPos="85.60" arrivalSpeed="11.41" duration="33.00" routeLength="180.50" waitingTime="9.00" waitingCount="1" stopTime="0.00" timeLoss="20.86" rerouteNo="0" devices="tripinfo_169" vType="DEFAULT_VEHTYPE" speedFactor="1.09" vaporized=""/>
    <tripinfo id="63" depart="18.00" departLane="122_4way_55to4way_56_0" departPos="5.10" departSpeed="0.00" departDelay="0.50" arrival="81.00" arrivalLane="124_4way_56to4way_57_0" arrivalPos="85.60" arrivalSpeed="7.75" duration="63.00" routeLength="180.50" waitingTime="38.00" waitingCount="1" stopTime="0.00" timeLoss="49.07" rerouteNo="0" devices="tripinfo_63" vType="DEFAULT_VEHTYPE" speedFactor="0.95" vaporized=""/>
    <tripinfo id="252" depart="72.00" departLane="126_4way_58to4way_57_0" departPos="5.10" departSpeed="0.00" departDelay="2.02" arrival="81.00" arrivalLane="126_4way_58to4way_57_0" arrivalPos="85.60" arrivalSpeed="13.02" duration="9.00" routeLength="80.50" waitingTime="0.00" waitingCount="0" stopTime="0.00" timeLoss="2.98" rerouteNo="0" devices="tripinfo_252" vType="DEFAULT_VEHTYPE" speedFactor="0.98" vaporized=""/>
    <tripinfo id="106" depart="30.00" departLane="9_4way_19to3way_18_0" departPos="5.10" departSpeed="0.00" departDelay="0.56" arrival="83.00" arrivalLane="14_3way_27to3way_36_0" arrivalPos="85.60" arrivalSpeed="16.08" duration="53.00" routeLength="275.13" waitingTime="24.00" waitingCount="1" stopTime="0.00" timeLoss="34.61" rerouteNo="0" devices="tripinfo_106" vType="DEFAULT_VEHTYPE" speedFactor="1.16" vaporized=""/>
    <tripinfo id="196" depart="55.00" departLane="19_4way_34to3way_35_0" departPos="5.10" departSpeed="0.00" departDelay="0.57" arrival="83.00" arrivalLane="4_3way_26to3way_17_0" arrivalPos="85.60" arrivalSpeed="14.04" duration="28.00" routeLength="275.13" waitingTime="0.00" waitingCount="0" stopTime="0.00" timeLoss="8.53" rerouteNo="0" devices="tripinfo_196" vType="DEFAULT_VEHTYPE" speedFactor="1.07" vaporized=""/>
    <tripinfo id="257" depart="72.00" departLane="3_4way_10to3way_1_0" departPos="5.10" departSpeed="0.00" departDelay="0.63" arrival="83.00" arrivalLane="3_4way_10to3way_1_0" arrivalPos="85.60" arrivalSpeed="10.73" duration="11.00" routeLength="80.50" waitingTime="0.00" waitingCount="0" stopTime="0.00" timeLoss="3.24" rerouteNo="0" devices="tripinfo_257" vType="DEFAULT_VEHTYPE" speedFactor="0.83" vaporized=""/>
    <tripinfo id="45" depart="13.00" departLane="53_3way_79to3way_78_0" departPos="5.10" departSpeed="0.00" departDelay="0.50" arrival="84.00" arrivalLane="32_3way_63to3way_54_0" arrivalPos="85.60" arrivalSpeed="12.74" duration="71.00" routeLength="883.70" waitingTime="0.00" waitingCount="0" stopTime="0.00" timeLoss="6.64" rerouteNo="0" devices="tripinfo_45" vType="DEFAULT_VEHTYPE" speedFactor="1.00" vaporized=""/>
    <tripinfo id="72" depart="20.00" departLane="134_4way_70to4way_61_0" departPos="5.10" departSpeed="0.00" departDelay="0.01" arrival="84.00" arrivalLane="128_4way_59to4way_58_0" arrivalPos="85.60" arrivalSpeed="15.42" duration="64.00" routeLength="375.13" waitingTime="26.00" waitingCount="1" stopTime="0.00" timeLoss="39.15" rerouteNo="0" devices="tripinfo_72" vType="DEFAULT_VEHTYPE" speedFactor="1.15" vaporized=""/>
    <tripinfo id="56" depart="18.00" departLane="88_4way_30to4way_39_0" departPos="5.10" departSpeed="0.00" departDelay="2.45" arrival="85.00" arrivalLane="117_4way_50to4way_51_0" arrivalPos="85.60" arrivalSpeed="13.10" duration="67.00" routeLength="475.13" waitingTime="19.00" waitingCount="1" stopTime="0.00" timeLoss="32.05" rerouteNo="0" devices="tripinfo_56" vType="DEFAULT_VEHTYPE" speedFactor="1.02" vaporized=""/>
    <tripinfo id="249" depart="70.00" departLane="44_4way_64to3way_73_0" departPos="5.10" departSpeed="0.00" departDelay="0.85" arrival="88.00" arrivalLane="43_3way_73to3way_74_0" arrivalPos="85.60" arrivalSpeed="15.15" duration="18.00" routeLength="175.13" waitingTime="0.00" waitingCount="0" stopTime="0.00" timeLoss="5.86" rerouteNo="0" devices="tripinfo_249" vType="DEFAULT_VEHTYPE" speedFactor="1.12" vaporized=""/>
    <tripinfo id="12" depart="4.00" departLane="64_4way_13to4way_22_0" departPos="5.10" departSpeed="0.00" departDelay="0.67" arrival="89.00" arrivalLane="19_4way_34to3way_35_0" arrivalPos="85.60" arrivalSpeed="15.94" duration="85.00" routeLength="575.13" waitingTime="36.00" waitingCount="1" stopTime="0.00" timeLoss="48.63" rerouteNo="0" devices="tripinfo_12" vType="DEFAULT_VEHTYPE" speedFactor="1.16" vaporized=""/>
    <tripinfo id="59" depart="17.00" departLane="64_4way_13to4way_22_0" departPos="5.10" departSpeed="0.00" departDelay="0.62" arrival="89.00" arrivalLane="106_4way_42to4way_43_0" arrivalPos="85.60" arrivalSpeed="7.30" duration="72.00" routeLength="575.13" waitingTime="16.00" waitingCount="1" stopTime="0.00" timeLoss="31.23" rerouteNo="0" devices="tripinfo_59" vType="DEFAULT_VEHTYPE" speedFactor="1.03" vaporized=""/>
    <tripinfo id="118" depart="33.00" departLane="19_3way_35to4way_34_0" departPos="5.10" departSpeed="0.00" departDelay="0.23" arrival="90.00" arrivalLane="94_4way_33to4way_42_0" arrivalPos="85.60" arrivalSpeed="14.18" duration="57.00" routeLength="275.13" waitingTime="25.00" waitingCount="1" stopTime="0.00" timeLoss="37.54" rerouteNo="0" devices="tripinfo_118" vType="DEFAULT_VEHTYPE" speedFactor="1.05" vaporized=""/>
    <tripinfo id="153" depart="43.00" departLane="24_3way_53to3way_44_0" departPos="5.10" departSpeed="0.00" departDelay="0.51" arrival="90.00" arrivalLane="104_4way_42to4way_41_0" arrivalPos="85.60" arrivalSpeed="11.83" duration="47.00" routeLength="375.13" waitingTime="3.00" waitingCount="1" stopTime="0.00" timeLoss="16.45" rerouteNo="0" devices="tripinfo_153" vType="DEFAULT_VEHTYPE" speedFactor="0.90" vaporized=""/>
    <tripinfo id="288" depart="80.00" departLane="22_3way_5to3way_4_0" departPos="5.10" departSpeed="0.00" departDelay="0.02" arrival="90.00" arrivalLane="22_3way_5to3way_4_0" arrivalPos="85.60" arrivalSpeed="10.31" duration="10.00" routeLength="80.50" waitingTime="0.00" waitingCount="0" stopTime="0.00" timeLoss="2.39" rerouteNo="0" devices="tripinfo_288" vType="DEFAULT_VEHTYPE" speedFactor="0.82" vaporized=""/>
    <tripinfo id="255" depart="71.00" departLane="39_3way_63to4way_64_0" departPos="5.10" departSpeed="0.00" departDelay="0.19" arrival="92.00" arrivalLane="135_4way_64to4way_65_0" arrivalPos="85.60" arrivalSpeed="9.83" duration="21.00" routeLength="180.50" waitingTime="0.00" waitingCount="0" stopTime="0.00" timeLoss="3.04" rerouteNo="0" devices="tripinfo_255" vType="DEFAULT_VEHTYPE" speedFactor="0.76" vaporized=""/>
    <tripinfo id="34" depart="10.00" departLane="114_4way_48to4way_57_0" departPos="5.10" departSpeed="0.00" departDelay="0.56" arrival="93.00" arrivalLane="132_4way_60to4way_61_0" arrivalPos="85.60" arrivalSpeed="13.29" duration="83.00" routeLength="475.13" waitingTime="35.00" waitingCount="1" stopTime="0.00" timeLoss="46.15" rerouteNo="0" devices="tripinfo_34" vType="DEFAULT_VEHTYPE" speedFactor="0.96" vaporized=""/>
    <tripinfo id="233" depart="65.00" departLane="119_4way_52to4way_51_0" departPos="5.10" departSpeed="0.00" departDelay="0.30" arrival="93.00" arrivalLane="115_4way_50to4way_49_0" arrivalPos="85.60" arrivalSpeed="11.40" duration="28.00" routeLength="280.50" waitingTime="0.00" waitingCount="0" stopTime="0.00" timeLoss="3.37" rerouteNo="0" devices="tripinfo_233" vType="DEFAULT_VEHTYPE" speedFactor="0.83" vaporized=""/>
    <tripinfo id="77" depart="22.00" departLane="28_3way_6to3way_5_0" departPos="5.10" departSpeed="0.00" departDelay="0.62" arrival="94.00" arrivalLane="84_4way_28to4way_37_0" arrivalPos="85.60" arrivalSpeed="13.20" duration="72.00" routeLength="875.13" waitingTime="0.00" waitingCount="0" stopTime="0.00" timeLoss="7.76" rerouteNo="0" devices="tripinfo_77" vType="DEFAULT_VEHTYPE" speedFactor="0.99" vaporized=""/>