<?xml version="1.0" encoding="UTF-8"?>

<!-- generated on 2023-07-27 07:10:04 by Eclipse SUMO sumo Version 1.12.0
<configuration xmlns:xsi="http://www.w3.org/2001/XMLSchema-instance" xsi:noNamespaceSchemaLocation="http://sumo.dlr.de/xsd/sumoConfiguration.xsd">

    <input>
        <net-file value="../../data_generation/sq.net.xml"/>
        <route-files value="../../data_generation/sq.rou.xml"/>
    </input>

    <output>
        <tripinfo-output value="tripinfo.xml"/>
        <statistic-output value="statistic.xml"/>
    </output>

    <time>
        <begin value="0"/>
        <end value="3600"/>
    </time>

    <processing>
        <time-to-teleport value="-1"/>
    </processing>

    <traci_server>
        <remote-port value="42939"/>
    </traci_server>

    <random_number>
        <seed value="1395"/>
    </random_number>

    <gui_only>
        <gui-settings-file value="../../data_generation/view_HY_0402.xml"/>
    </gui_only>

</configuration>
-->

<tripinfos xmlns:xsi="http://www.w3.org/2001/XMLSchema-instance" xsi:noNamespaceSchemaLocation="http://sumo.dlr.de/xsd/tripinfo_file.xsd">
    <tripinfo id="1" depart="2.00" departLane="373_4way_66to4way_67_0" departPos="5.10" departSpeed="0.00" departDelay="0.67" arrival="11.00" arrivalLane="373_4way_66to4way_67_0" arrivalPos="85.60" arrivalSpeed="13.32" duration="9.00" routeLength="80.50" waitingTime="0.00" waitingCount="0" stopTime="0.00" timeLoss="3.36" rerouteNo="0" devices="tripinfo_1" vType="DEFAULT_VEHTYPE" speedFactor="1.04" vaporized=""/>
    <tripinfo id="18" depart="24.00" departLane="137_4way_112to4way_97_0" departPos="5.10" departSpeed="0.00" departDelay="0.00" arrival="34.00" arrivalLane="137_4way_112to4way_97_0" arrivalPos="85.60" arrivalSpeed="12.64" duration="10.00" routeLength="80.50" waitingTime="0.00" waitingCount="0" stopTime="0.00" timeLoss="3.21" rerouteNo="0" devices="tripinfo_18" vType="DEFAULT_VEHTYPE" speedFactor="0.96" vaporized=""/>
    <tripinfo id="22" depart="30.00" departLane="403_4way_98to4way_83_0" departPos="5.10" departSpeed="0.00" departDelay="0.67" arrival="39.00" arrivalLane="403_4way_98to4way_83_0" arrivalPos="85.60" arrivalSpeed="13.26" duration="9.00" routeLength="80.50" waitingTime="0.00" waitingCount="0" stopTime="0.00" timeLoss="2.91" rerouteNo="0" devices="tripinfo_22" vType="DEFAULT_VEHTYPE" speedFactor="1.00" vaporized=""/>
    <tripinfo id="7" depart="10.00" departLane="7_3way_119to3way_104_0" departPos="5.10" departSpeed="0.00" departDelay="0.67" arrival="44.00" arrivalLane="88_3way_74to3way_59_0" arrivalPos="85.60" arrivalSpeed="13.08" duration="34.00" routeLength="380.50" waitingTime="0.00" waitingCount="0" stopTime="0.00" timeLoss="4.36" rerouteNo="0" devices="tripinfo_7" vType="DEFAULT_VEHTYPE" speedFactor="0.95" vaporized=""/>
    <tripinfo id="24" depart="32.00" departLane="340_4way_48to4way_47_0" departPos="5.10" departSpeed="0.00" departDelay="0.00" arrival="59.00" arrivalLane="366_4way_62to4way_77_0" arrivalPos="85.60" arrivalSpeed="12.87" duration="27.00" routeLength="275.13" waitingTime="0.00" waitingCount="0" stopTime="0.00" timeLoss="5.47" rerouteNo="0" devices="tripinfo_24" vType="DEFAULT_VEHTYPE" speedFactor="0.97" vaporized=""/>
    <tripinfo id="47" depart="63.00" departLane="40_3way_180to4way_181_0" departPos="5.10" departSpeed="0.00" departDelay="0.33" arrival="73.00" arrivalLane="40_3way_180to4way_181_0" arrivalPos="85.60" arrivalSpeed="12.32" duration="10.00" routeLength="80.50" waitingTime="0.00" waitingCount="0" stopTime="0.00" timeLoss="3.10" rerouteNo="0" devices="tripinfo_47" vType="DEFAULT_VEHTYPE" speedFactor="0.90" vaporized=""/>
    <tripinfo id="26" depart="35.00" departLane="34_3way_164to4way_163_0" departPos="5.10" departSpeed="0.00" departDelay="0.33" arrival="77.00" arrivalLane="227_4way_163to4way_178_0" arrivalPos="85.60" arrivalSpeed="13.52" duration="42.00" routeLength="175.13" waitingTime="18.00" waitingCount="1" stopTime="0.00" timeLoss="28.77" rerouteNo="0" devices="tripinfo_26" vType="DEFAULT_VEHTYPE" speedFactor="1.03" vaporized=""/>
    <tripinfo id="10" depart="14.00" departLane="170_4way_130to4way_145_0" departPos="5.10" departSpeed="0.00" departDelay="0.67" arrival="84.00" arrivalLane="198_4way_147to4way_148_0" arrivalPos="85.60" arrivalSpeed="13.78" duration="70.00" routeLength="375.13" waitingTime="31.00" waitingCount="1" stopTime="0.00" timeLoss="42.74" rerouteNo="0" devices="tripinfo_10" vType="DEFAULT_VEHTYPE" speedFactor="1.04" vaporized=""/>
    <tripinfo id="16" depart="22.00" departLane="184_4way_141to4way_140_0" departPos="5.10" departSpeed="0.00" departDelay="0.67" arrival="137.00" arrivalLane="183_4way_139to4way_154_0" arrivalPos="85.60" arrivalSpeed="11.43" duration="115.00" routeLength="275.13" waitingTime="77.00" waitingCount="2" stopTime="0.00" timeLoss="91.94" rerouteNo="0" devices="tripinfo_16" vType="DEFAULT_VEHTYPE" speedFactor="0.90" vaporized=""/>
    <tripinfo id="82" depart="110.00" departLane="171_4way_131to4way_132_0" departPos="5.10" departSpeed="0.00" departDelay="0.67" arrival="137.00" arrivalLane="173_4way_132to4way_133_0" arrivalPos="85.60" arrivalSpeed="13.18" duration="27.00" routeLength="180.50" waitingTime="6.00" waitingCount="1" stopTime="0.00" timeLoss="13.70" rerouteNo="0" devices="tripinfo_82" vType="DEFAULT_VEHTYPE" speedFactor="0.99" vaporized=""/>
    <tripinfo id="83" depart="111.00" departLane="256_4way_33to4way_18_0" departPos="5.10" departSpeed="0.00" departDelay="0.34" arrival="137.00" arrivalLane="77_4way_18to3way_3_0" arrivalPos="85.60" arrivalSpeed="12.35" duration="26.00" routeLength="180.50" waitingTime="5.00" waitingCount="1" stopTime="0.00" timeLoss="11.75" rerouteNo="0" devices="tripinfo_83" vType="DEFAULT_VEHTYPE" speedFactor="0.93" vaporized=""/>
    <tripinfo id="72" depart="96.00" departLane="293_4way_203to4way_204_0" departPos="5.10" departSpeed="0.00" departDelay="0.00" arrival="143.00" arrivalLane="222_4way_175to4way_160_0" arrivalPos="85.60" arrivalSpeed="14.96" duration="47.00" routeLength="475.13" waitingTime="3.00" waitingCount="1" stopTime="0.00" timeLoss="15.52" rerouteNo="0" devices="tripinfo_72" vType="DEFAULT_VEHTYPE" speedFactor="1.15" vaporized=""/>
    <tripinfo id="93" depart="124.00" departLane="298_4way_22to4way_21_0" departPos="5.10" departSpeed="0.00" departDelay="0.00" arrival="143.00" arrivalLane="299_4way_21to4way_36_0" arrivalPos="85.60" arrivalSpeed="13.33" duration="19.00" routeLength="175.13" waitingTime="0.00" waitingCount="0" stopTime="0.00" timeLoss="5.04" rerouteNo="0" devices="tripinfo_93" vType="DEFAULT_VEHTYPE" speedFactor="1.00" vaporized=""/>
    <tripinfo id="34" depart="46.00" departLane="23_3way_149to3way_134_0" departPos="5.10" departSpeed="0.00" departDelay="0.67" arrival="145.00" arrivalLane="383_4way_72to4way_71_0" arrivalPos="85.60" arrivalSpeed="12.66" duration="99.00" routeLength="775.13" waitingTime="24.00" waitingCount="2" stopTime="0.00" timeLoss="39.43" rerouteNo="0" devices="tripinfo_34" vType="DEFAULT_VEHTYPE" speedFactor="0.96" vaporized=""/>
    <tripinfo id="44" depart="59.00" departLane="250_4way_177to4way_176_0" departPos="5.10" departSpeed="0.00" departDelay="0.33" arrival="148.00" arrivalLane="240_4way_172to4way_171_0" arrivalPos="85.60" arrivalSpeed="9.93" duration="89.00" routeLength="580.50" waitingTime="25.00" waitingCount="1" stopTime="0.00" timeLoss="35.73" rerouteNo="0" devices="tripinfo_44" vType="DEFAULT_VEHTYPE" speedFactor="0.78" vaporized=""/>
    <tripinfo id="20" depart="27.00" departLane="395_4way_94to4way_79_0" departPos="5.10" departSpeed="0.00" departDelay="0.33" arrival="149.00" arrivalLane="317_4way_34to4way_33_0" arrivalPos="85.60" arrivalSpeed="12.03" duration="122.00" routeLength="475.13" waitingTime="66.00" waitingCount="2" stopTime="0.00" timeLoss="82.31" rerouteNo="0" devices="tripinfo_20" vType="DEFAULT_VEHTYPE" speedFactor="0.89" vaporized=""/>
    <tripinfo id="60" depart="80.00" departLane="131_4way_110to4way_95_0" departPos="5.10" departSpeed="0.00" departDelay="0.00" arrival="160.00" arrivalLane="402_4way_83to4way_84_0" arrivalPos="85.60" arrivalSpeed="15.54" duration="80.00" routeLength="580.30" waitingTime="30.00" waitingCount="1" stopTime="0.00" timeLoss="42.12" rerouteNo="0" devices="tripinfo_60" vType="DEFAULT_VEHTYPE" speedFactor="1.12" vaporized=""/>
    <tripinfo id="33" depart="44.00" departLane="28_3way_149to4way_148_0" departPos="5.10" departSpeed="0.00" departDelay="0.00" arrival="161.00" arrivalLane="278_4way_190to4way_205_0" arrivalPos="85.60" arrivalSpeed="14.41" duration="117.00" routeLength="775.13" waitingTime="46.00" waitingCount="2" stopTime="0.00" timeLoss="62.48" rerouteNo="0" devices="tripinfo_33" vType="DEFAULT_VEHTYPE" speedFactor="1.06" vaporized=""/>
    <tripinfo id="40" depart="54.00" departLane="255_4way_19to4way_18_0" departPos="5.10" departSpeed="0.00" departDelay="0.67" arrival="164.00" arrivalLane="391_4way_77to4way_92_0" arrivalPos="85.60" arrivalSpeed="14.67" duration="110.00" routeLength="675.13" waitingTime="54.00" waitingCount="1" stopTime="0.00" timeLoss="64.21" rerouteNo="0" devices="tripinfo_40" vType="DEFAULT_VEHTYPE" speedFactor="1.08" vaporized=""/>
    <tripinfo id="108" depart="144.00" departLane="125_4way_108to4way_93_0" departPos="5.10" departSpeed="0.00" departDelay="0.00" arrival="165.00" arrivalLane="410_4way_93to4way_92_0" arrivalPos="85.60" arrivalSpeed="11.10" duration="21.00" routeLength="175.13" waitingTime="0.00" waitingCount="0" stopTime="0.00" timeLoss="5.43" rerouteNo="0" devices="tripinfo_108" vType="DEFAULT_VEHTYPE" speedFactor="0.88" vaporized=""/>
    <tripinfo id="17" depart="23.00" departLane="132_4way_112to4way_111_0" departPos="5.10" departSpeed="0.00" departDelay="0.33" arrival="167.00" arrivalLane="87_4way_20to3way_5_0" arrivalPos="85.60" arrivalSpeed="13.51" duration="144.00" routeLength="880.30" waitingTime="66.00" waitingCount="2" stopTime="0.00" timeLoss="81.45" rerouteNo="0" devices="tripinfo_17" vType="DEFAULT_VEHTYPE" speedFactor="1.04" vaporized=""/>
    <tripinfo id="80" depart="107.00" departLane="208_4way_154to4way_169_0" departPos="5.10" departSpeed="0.00" departDelay="0.34" arrival="179.00" arrivalLane="269_4way_187to4way_188_0" arrivalPos="85.60" arrivalSpeed="10.15" duration="72.00" routeLength="575.13" waitingTime="6.00" waitingCount="1" stopTime="0.00" timeLoss="17.72" rerouteNo="0" devices="tripinfo_80" vType="DEFAULT_VEHTYPE" speedFactor="0.78" vaporized=""/>
    <tripinfo id="0" depart="0.00" departLane="352_4way_54to4way_53_0" departPos="5.10" departSpeed="0.00" departDelay="0.00" arrival="190.00" arrivalLane="374_4way_66to4way_81_0" arrivalPos="85.60" arrivalSpeed="5.13" duration="190.00" routeLength="475.13" waitingTime="134.00" waitingCount="3" stopTime="0.00" timeLoss="155.48" rerouteNo="0" devices="tripinfo_0" vType="DEFAULT_VEHTYPE" speedFactor="1.00" vaporized=""/>
    <tripinfo id="81" depart="108.00" departLane="197_4way_161to4way_146_0" departPos="5.10" departSpeed="0.00" departDelay="0.00" arrival="190.00" arrivalLane="379_4way_70to4way_69_0" arrivalPos="85.60" arrivalSpeed="13.74" duration="82.00" routeLength="775.13" waitingTime="10.00" waitingCount="1" stopTime="0.00" timeLoss="27.75" rerouteNo="0" devices="tripinfo_81" vType="DEFAULT_VEHTYPE" speedFactor="1.05" vaporized=""/>
    <tripinfo id="115" depart="154.00" departLane="99_3way_75to4way_76_0" departPos="5.10" departSpeed="0.00" departDelay="0.67" arrival="193.00" arrivalLane="99_3way_75to4way_76_0" arrivalPos="85.60" arrivalSpeed="8.88" duration="39.00" routeLength="80.50" waitingTime="24.00" waitingCount="1" stopTime="0.00" timeLoss="32.11" rerouteNo="0" devices="tripinfo_115" vType="DEFAULT_VEHTYPE" speedFactor="0.92" vaporized=""/>
    <tripinfo id="2" depart="3.00" departLane="270_4way_202to4way_187_0" departPos="5.10" departSpeed="0.00" departDelay="0.33" arrival="197.00" arrivalLane="345_4way_64to4way_49_0" arrivalPos="85.60" arrivalSpeed="13.29" duration="194.00" routeLength="1274.93" waitingTime="78.00" waitingCount="3" stopTime="0.00" timeLoss="104.28" rerouteNo="0" devices="tripinfo_2" vType="DEFAULT_VEHTYPE" speedFactor="1.04" vaporized=""/>
    <tripinfo id="9" depart="12.00" departLane="224_4way_176to4way_161_0" departPos="5.10" departSpeed="0.00" departDelay="0.00" arrival="197.00" arrivalLane="356_4way_56to4way_55_0" arrivalPos="85.60" arrivalSpeed="12.30" duration="185.00" routeLength="875.13" waitingTime="91.00" waitingCount="3" stopTime="0.00" timeLoss="114.51" rerouteNo="0" devices="tripinfo_9" vType="DEFAULT_VEHTYPE" speedFactor="0.91" vaporized=""/>
    <tripinfo id="25" depart="34.00" departLane="128_4way_94to4way_109_0" departPos="5.10" departSpeed="0.00" departDelay="0.67" arrival="197.00" arrivalLane="209_4way_155to4way_156_0" arrivalPos="85.60" arrivalSpeed="12.87" duration="163.00" routeLength="575.13" waitingTime="101.00" waitingCount="2" stopTime="0.00" timeLoss="118.35" rerouteNo="0" devices="tripinfo_25" vType="DEFAULT_VEHTYPE" speedFactor="0.95" vaporized=""/>
    <tripinfo id="42" depart="56.00" departLane="118_4way_106to4way_121_0" departPos="5.10" departSpeed="0.00" departDelay="0.00" arrival="197.00" arrivalLane="184_4way_140to4way_141_0" arrivalPos="85.60" arrivalSpeed="12.99" duration="141.00" routeLength="675.13" waitingTime="74.00" waitingCount="2" stopTime="0.00" timeLoss="91.21" rerouteNo="0" devices="tripinfo_42" vType="DEFAULT_VEHTYPE" speedFactor="0.99" vaporized=""/>
    <tripinfo id="62" depart="83.00" departLane="376_4way_82to4way_67_0" departPos="5.10" departSpeed="0.00" departDelay="0.33" arrival="197.00" arrivalLane="344_4way_50to4way_49_0" arrivalPos="85.60" arrivalSpeed="13.71" duration="114.00" routeLength="475.13" waitingTime="63.00" waitingCount="2" stopTime="0.00" timeLoss="79.98" rerouteNo="0" devices="tripinfo_62" vType="DEFAULT_VEHTYPE" speedFactor="1.05" vaporized=""/>
    <tripinfo id="73" depart="98.00" departLane="198_4way_147to4way_148_0" departPos="5.10" departSpeed="0.00" departDelay="0.67" arrival="197.00" arrivalLane="27_3way_149to3way_164_0" arrivalPos="85.60" arrivalSpeed="13.46" duration="99.00" routeLength="280.29" waitingTime="61.00" waitingCount="2" stopTime="0.00" timeLoss="77.58" rerouteNo="0" devices="tripinfo_73" vType="DEFAULT_VEHTYPE" speedFactor="0.98" vaporized=""/>
    <tripinfo id="109" depart="146.00" departLane="309_4way_41to4way_26_0" departPos="5.10" departSpeed="0.00" departDelay="0.67" arrival="197.00" arrivalLane="300_4way_23to4way_22_0" arrivalPos="85.60" arrivalSpeed="14.02" duration="51.00" routeLength="475.13" waitingTime="5.00" waitingCount="1" stopTime="0.00" timeLoss="16.67" rerouteNo="0" devices="tripinfo_109" vType="DEFAULT_VEHTYPE" speedFactor="1.04" vaporized=""/>
    <tripinfo id="78" depart="104.00" departLane="187_4way_141to4way_156_0" departPos="5.10" departSpeed="0.00" departDelay="0.00" arrival="204.00" arrivalLane="217_4way_159to4way_160_0" arrivalPos="85.60" arrivalSpeed="14.21" duration="100.00" routeLength="475.13" waitingTime="50.00" waitingCount="2" stopTime="0.00" timeLoss="65.91" rerouteNo="0" devices="tripinfo_78" vType="DEFAULT_VEHTYPE" speedFactor="1.03" vaporized=""/>
    <tripinfo id="97" depart="130.00" departLane="397_4way_80to4way_95_0" departPos="5.10" departSpeed="0.00" departDelay="0.67" arrival="204.00" arrivalLane="165_4way_128to4way_129_0" arrivalPos="85.60" arrivalSpeed="14.28" duration="74.00" routeLength="675.13" waitingTime="13.00" waitingCount="1" stopTime="0.00" timeLoss="27.25" rerouteNo="0" devices="tripinfo_97" vType="DEFAULT_VEHTYPE" speedFactor="1.06" vaporized=""/>
    <tripinfo id="95" depart="127.00" departLane="11_3way_90to3way_105_0" departPos="5.10" departSpeed="0.00" departDelay="0.34" arrival="206.00" arrivalLane="230_4way_167to4way_168_0" arrivalPos="85.60" arrivalSpeed="11.96" duration="79.00" routeLength="775.13" waitingTime="3.00" waitingCount="1" stopTime="0.00" timeLoss="14.94" rerouteNo="0" devices="tripinfo_95" vType="DEFAULT_VEHTYPE" speedFactor="0.88" vaporized=""/>
    <tripinfo id="69" depart="92.00" departLane="394_4way_79to4way_80_0" departPos="5.10" departSpeed="0.00" departDelay="0.00" arrival="207.00" arrivalLane="328_4way_53to4way_38_0" arrivalPos="85.60" arrivalSpeed="10.45" duration="115.00" routeLength="675.13" waitingTime="36.00" waitingCount="2" stopTime="0.00" timeLoss="55.00" rerouteNo="0" devices="tripinfo_69" vType="DEFAULT_VEHTYPE" speedFactor="0.82" vaporized=""/>
    <tripinfo id="102" depart="136.00" departLane="74_3way_44to3way_29_0" departPos="5.10" departSpeed="0.00" departDelay="0.00" arrival="209.00" arrivalLane="90_3way_7to3way_6_0" arrivalPos="85.60" arrivalSpeed="14.00" duration="73.00" routeLength="977.30" waitingTime="0.00" waitingCount="0" stopTime="0.00" timeLoss="5.87" rerouteNo="0" devices="tripinfo_102" vType="DEFAULT_VEHTYPE" speedFactor="1.05" vaporized=""/>
    <tripinfo id="110" depart="147.00" departLane="224_4way_176to4way_161_0" departPos="5.10" departSpeed="0.00" departDelay="0.34" arrival="211.00" arrivalLane="213_4way_158to4way_157_0" arrivalPos="85.60" arrivalSpeed="14.06" duration="64.00" routeLength="475.13" waitingTime="19.00" waitingCount="1" stopTime="0.00" timeLoss="30.86" rerouteNo="0" devices="tripinfo_110" vType="DEFAULT_VEHTYPE" speedFactor="1.05" vaporized=""/>
    <tripinfo id="6" depart="8.00" departLane="199_4way_162to4way_147_0" departPos="5.10" departSpeed="0.00" departDelay="0.00" arrival="212.00" arrivalLane="186_4way_142to4way_141_0" arrivalPos="85.60" arrivalSpeed="13.97" duration="204.00" routeLength="675.13" waitingTime="130.00" waitingCount="3" stopTime="0.00" timeLoss="155.94" rerouteNo="0" devices="tripinfo_6" vType="DEFAULT_VEHTYPE" speedFactor="1.04" vaporized=""/>
    <tripinfo id="32" depart="43.00" departLane="365_4way_63to4way_62_0" departPos="5.10" departSpeed="0.00" departDelay="0.33" arrival="212.00" arrivalLane="19_3way_120to3way_135_0" arrivalPos="85.60" arrivalSpeed="12.78" duration="169.00" routeLength="769.56" waitingTime="87.00" waitingCount="3" stopTime="0.00" timeLoss="111.12" rerouteNo="0" devices="tripinfo_32" vType="DEFAULT_VEHTYPE" speedFactor="1.00" vaporized=""/>
    <tripinfo id="98" depart="131.00" departLane="99_4way_76to3way_75_0" departPos="5.10" departSpeed="0.00" departDelay="0.34" arrival="215.00" arrivalLane="78_3way_45to3way_30_0" arrivalPos="85.60" arrivalSpeed="11.80" duration="84.00" routeLength="380.29" waitingTime="45.00" waitingCount="1" stopTime="0.00" timeLoss="52.25" rerouteNo="0" devices="tripinfo_98" vType="DEFAULT_VEHTYPE" speedFactor="0.88" vaporized=""/>
    <tripinfo id="45" depart="60.00" departLane="400_4way_83to4way_82_0" departPos="5.10" departSpeed="0.00" departDelay="0.00" arrival="222.00" arrivalLane="391_4way_77to4way_92_0" arrivalPos="85.60" arrivalSpeed="12.88" duration="162.00" routeLength="675.13" waitingTime="92.00" waitingCount="2" stopTime="0.00" timeLoss="112.32" rerouteNo="0" devices="tripinfo_45" vType="DEFAULT_VEHTYPE" speedFactor="1.00" vaporized=""/>
    <tripinfo id="149" depart="199.00" departLane="116_4way_88to4way_103_0" departPos="5.10" departSpeed="0.00" departDelay="0.34" arrival="224.00" arrivalLane="150_4way_118to4way_133_0" arrivalPos="85.60" arrivalSpeed="12.93" duration="25.00" routeLength="280.50" waitingTime="0.00" waitingCount="0" stopTime="0.00" timeLoss="3.72" rerouteNo="0" devices="tripinfo_149" vType="DEFAULT_VEHTYPE" speedFactor="0.95" vaporized=""/>
    <tripinfo id="156" depart="208.00" departLane="7_3way_119to3way_104_0" departPos="5.10" departSpeed="0.00" departDelay="0.00" arrival="226.00" arrivalLane="8_3way_104to3way_89_0" arrivalPos="85.60" arrivalSpeed="12.03" duration="18.00" routeLength="180.50" waitingTime="0.00" waitingCount="0" stopTime="0.00" timeLoss="3.63" rerouteNo="0" devices="tripinfo_156" vType="DEFAULT_VEHTYPE" speedFactor="0.91" vaporized=""/>
    <tripinfo id="94" depart="126.00" departLane="366_4way_62to4way_77_0" departPos="5.10" departSpeed="0.00" departDelay="0.67" arrival="231.00" arrivalLane="416_4way_98to4way_99_0" arrivalPos="85.60" arrivalSpeed="14.63" duration="105.00" routeLength="875.13" waitingTime="34.00" waitingCount="1" stopTime="0.00" timeLoss="46.16" rerouteNo="0" devices="tripinfo_94" vType="DEFAULT_VEHTYPE" speedFactor="1.08" vaporized=""/>
    <tripinfo id="8" depart="11.00" departLane="334_4way_56to4way_41_0" departPos="5.10" departSpeed="0.00" departDelay="0.33" arrival="236.00" arrivalLane="86_3way_6to3way_5_0" arrivalPos="85.60" arrivalSpeed="12.27" duration="225.00" routeLength="875.13" waitingTime="137.00" waitingCount="3" stopTime="0.00" timeLoss="159.23" rerouteNo="0" devices="tripinfo_8" vType="DEFAULT_VEHTYPE" speedFactor="0.98" vaporized=""/>
    <tripinfo id="57" depart="76.00" departLane="206_4way_153to4way_168_0" departPos="5.10" departSpeed="0.00" departDelay="0.00" arrival="236.00" arrivalLane="246_4way_174to4way_175_0" arrivalPos="85.60" arrivalSpeed="12.18" duration="160.00" routeLength="775.13" waitingTime="83.00" waitingCount="2" stopTime="0.00" timeLoss="101.05" rerouteNo="0" devices="tripinfo_57" vType="DEFAULT_VEHTYPE" speedFactor="0.97" vaporized=""/>
    <tripinfo id="168" depart="224.00" departLane="390_4way_78to4way_77_0" departPos="5.10" departSpeed="0.00" departDelay="0.01" arrival="249.00" arrivalLane="389_4way_76to4way_91_0" arrivalPos="85.60" arrivalSpeed="14.63" duration="25.00" routeLength="275.13" waitingTime="0.00" waitingCount="0" stopTime="0.00" timeLoss="6.08" rerouteNo="0" devices="tripinfo_168" vType="DEFAULT_VEHTYPE" speedFactor="1.10" vaporized=""/>
    <tripinfo id="167" depart="223.00" departLane="357_4way_55to4way_70_0" departPos="5.10" departSpeed="0.00" departDelay="0.34" arrival="250.00" arrivalLane="357_4way_55to4way_70_0" arrivalPos="85.60" arrivalSpeed="5.53" duration="27.00" routeLength="80.50" waitingTime="13.00" waitingCount="1" stopTime="0.00" timeLoss="20.10" rerouteNo="0" devices="tripinfo_167" vType="DEFAULT_VEHTYPE" speedFactor="0.85" vaporized=""/>
    <tripinfo id="5" depart="7.00" departLane="290_4way_200to4way_201_0" departPos="5.10" departSpeed="0.00" departDelay="0.33" arrival="257.00" arrivalLane="106_4way_115to4way_100_0" arrivalPos="85.60" arrivalSpeed="12.22" duration="250.00" routeLength="1169.56" waitingTime="133.00" waitingCount="3" stopTime="0.00" timeLoss="158.46" rerouteNo="0" devices="tripinfo_5" vType="DEFAULT_VEHTYPE" speedFactor="0.94" vaporized=""/>
    <tripinfo id="55" depart="74.00" departLane="105_4way_101to4way_100_0" departPos="5.10" departSpeed="0.00" departDelay="0.67" arrival="257.00" arrivalLane="127_4way_109to4way_124_0" arrivalPos="85.60" arrivalSpeed="12.43" duration="183.00" routeLength="875.13" waitingTime="90.00" waitingCount="3" stopTime="0.00" timeLoss="114.56" rerouteNo="0" devices="tripinfo_55" vType="DEFAULT_VEHTYPE" speedFactor="0.94" vaporized=""/>
    <tripinfo id="65" depart="87.00" departLane="369_4way_64to4way_65_0" departPos="5.10" departSpeed="0.00" departDelay="0.34" arrival="257.00" arrivalLane="137_4way_97to4way_112_0" arrivalPos="85.60" arrivalSpeed="16.26" duration="170.00" routeLength="580.30" waitingTime="113.00" waitingCount="2" stopTime="0.00" timeLoss="133.78" rerouteNo="0" devices="tripinfo_65" vType="DEFAULT_VEHTYPE" speedFactor="1.20" vaporized=""/>
    <tripinfo id="127" depart="170.00" departLane="8_3way_104to3way_89_0" departPos="5.10" departSpeed="0.00" departDelay="0.67" arrival="257.00" arrivalLane="408_4way_88to4way_87_0" arrivalPos="85.60" arrivalSpeed="13.50" duration="87.00" routeLength="275.13" waitingTime="55.00" waitingCount="1" stopTime="0.00" timeLoss="65.55" rerouteNo="0" devices="tripinfo_127" vType="DEFAULT_VEHTYPE" speedFactor="1.00" vaporized=""/>
    <tripinfo id="88" depart="118.00" departLane="250_4way_177to4way_176_0" departPos="5.10" departSpeed="0.00" departDelay="0.67" arrival="263.00" arrivalLane="231_4way_167to4way_182_0" arrivalPos="85.60" arrivalSpeed="13.91" duration="145.00" routeLength="1075.13" waitingTime="55.00" waitingCount="1" stopTime="0.00" timeLoss="70.72" rerouteNo="0" devices="tripinfo_88" vType="DEFAULT_VEHTYPE" speedFactor="1.06" vaporized=""/>
    <tripinfo id="38" depart="51.00" departLane="73_3way_223to4way_208_0" departPos="5.10" departSpeed="0.00" departDelay="0.33" arrival="267.00" arrivalLane="228_4way_167to4way_166_0" arrivalPos="85.60" arrivalSpeed="13.39" duration="216.00" routeLength="1475.13" waitingTime="88.00" waitingCount="2" stopTime="0.00" timeLoss="108.77" rerouteNo="0" devices="tripinfo_38" vType="DEFAULT_VEHTYPE" speedFactor="1.00" vaporized=""/>
    <tripinfo id="86" depart="115.00" departLane="80_3way_5to3way_4_0" departPos="5.10" departSpeed="0.00" departDelay="0.34" arrival="275.00" arrivalLane="10_3way_105to3way_120_0" arrivalPos="85.60" arrivalSpeed="13.84" duration="160.00" routeLength="1277.30" waitingTime="54.00" waitingCount="2" stopTime="0.00" timeLoss="73.07" rerouteNo="0" devices="tripinfo_86" vType="DEFAULT_VEHTYPE" speedFactor="1.06" vaporized=""/>
    <tripinfo id="15" depart="20.00" departLane="354_4way_55to4way_54_0" departPos="5.10" departSpeed="0.00" departDelay="0.00" arrival="281.00" arrivalLane="119_4way_91to4way_106_0" arrivalPos="85.60" arrivalSpeed="13.31" duration="261.00" routeLength="1275.13" waitingTime="137.00" waitingCount="4" stopTime="0.00" timeLoss="171.59" rerouteNo="0" devices="tripinfo_15" vType="DEFAULT_VEHTYPE" speedFactor="1.05" vaporized=""/>
    <tripinfo id="176" depart="235.00" departLane="160_4way_140to4way_125_0" departPos="5.10" departSpeed="0.00" departDelay="0.34" arrival="281.00" arrivalLane="394_4way_80to4way_79_0" arrivalPos="85.60" arrivalSpeed="12.51" duration="46.00" routeLength="475.13" waitingTime="0.00" waitingCount="0" stopTime="0.00" timeLoss="10.29" rerouteNo="0" devices="tripinfo_176" vType="DEFAULT_VEHTYPE" speedFactor="0.97" vaporized=""/>
    <tripinfo id="206" depart="275.00" departLane="93_4way_61to3way_60_0" departPos="5.10" departSpeed="0.00" departDelay="0.34" arrival="284.00" arrivalLane="93_4way_61to3way_60_0" arrivalPos="85.60" arrivalSpeed="12.68" duration="9.00" routeLength="80.50" waitingTime="0.00" waitingCount="0" stopTime="0.00" timeLoss="2.68" rerouteNo="0" devices="tripinfo_206" vType="DEFAULT_VEHTYPE" speedFactor="0.92" vaporized=""/>
    <tripinfo id="100" depart="134.00" departLane="242_4way_173to4way_172_0" departPos="5.10" departSpeed="0.00" departDelay="0.67" arrival="287.00" arrivalLane="366_4way_77to4way_62_0" arrivalPos="85.60" arrivalSpeed="15.90" duration="153.00" routeLength="1280.30" waitingTime="55.00" waitingCount="2" stopTime="0.00" timeLoss="75.28" rerouteNo="0" devices="tripinfo_100" vType="DEFAULT_VEHTYPE" speedFactor="1.20" vaporized=""/>
    <tripinfo id="118" depart="158.00" departLane="235_4way_184to4way_169_0" departPos="5.10" departSpeed="0.00" departDelay="0.67" arrival="287.00" arrivalLane="392_4way_79to4way_78_0" arrivalPos="85.60" arrivalSpeed="13.75" duration="129.00" routeLength="775.13" waitingTime="51.00" waitingCount="2" stopTime="0.00" timeLoss="74.63" rerouteNo="0" devices="tripinfo_118" vType="DEFAULT_VEHTYPE" speedFactor="1.05" vaporized=""/>
    <tripinfo id="104" depart="139.00" departLane="361_4way_72to4way_57_0" departPos="5.10" departSpeed="0.00" departDelay="0.34" arrival="289.00" arrivalLane="323_4way_37to4way_36_0" arrivalPos="85.60" arrivalSpeed="12.64" duration="150.00" routeLength="775.13" waitingTime="72.00" waitingCount="2" stopTime="0.00" timeLoss="90.43" rerouteNo="0" devices="tripinfo_104" vType="DEFAULT_VEHTYPE" speedFactor="0.95" vaporized=""/>
    <tripinfo id="210" depart="280.00" departLane="54_3way_213to4way_198_0" departPos="5.10" departSpeed="0.00" departDelay="0.01" arrival="289.00" arrivalLane="54_3way_213to4way_198_0" arrivalPos="85.60" arrivalSpeed="15.89" duration="9.00" routeLength="80.50" waitingTime="0.00" waitingCount="0" stopTime="0.00" timeLoss="3.83" rerouteNo="0" devices="tripinfo_210" vType="DEFAULT_VEHTYPE" speedFactor="1.20" vaporized=""/>
    <tripinfo id="49" depart="66.00" departLane="46_3way_2to4way_17_0" departPos="5.10" departSpeed="0.00" departDelay="0.67" arrival="291.00" arrivalLane="331_4way_40to4way_41_0" arrivalPos="85.60" arrivalSpeed="13.99" duration="225.00" routeLength="1075.13" waitingTime="125.00" waitingCount="3" stopTime="0.00" timeLoss="152.76" rerouteNo="0" devices="tripinfo_49" vType="DEFAULT_VEHTYPE" speedFactor="1.08" vaporized=""/>
    <tripinfo id="144" depart="192.00" departLane="267_4way_187to4way_186_0" departPos="5.10" departSpeed="0.00" departDelay="0.00" arrival="302.00" arrivalLane="131_4way_110to4way_95_0" arrivalPos="85.60" arrivalSpeed="13.68" duration="110.00" routeLength="780.30" waitingTime="44.00" waitingCount="1" stopTime="0.00" timeLoss="56.40" rerouteNo="0" devices="tripinfo_144" vType="DEFAULT_VEHTYPE" speedFactor="1.07" vaporized=""/>
    <tripinfo id="209" depart="279.00" departLane="227_4way_178to4way_163_0" departPos="5.10" departSpeed="0.00" departDelay="0.34" arrival="305.00" arrivalLane="175_4way_148to4way_133_0" arrivalPos="85.60" arrivalSpeed="12.79" duration="26.00" routeLength="280.50" waitingTime="0.00" waitingCount="0" stopTime="0.00" timeLoss="3.79" rerouteNo="0" devices="tripinfo_209" vType="DEFAULT_VEHTYPE" speedFactor="0.95" vaporized=""/>
    <tripinfo id="36" depart="48.00" departLane="376_4way_67to4way_82_0" departPos="5.10" departSpeed="0.00" departDelay="0.00" arrival="310.00" arrivalLane="173_4way_132to4way_133_0" arrivalPos="85.60" arrivalSpeed="6.46" duration="262.00" routeLength="975.13" waitingTime="163.00" waitingCount="5" stopTime="0.00" timeLoss="200.82" rerouteNo="0" devices="tripinfo_36" vType="DEFAULT_VEHTYPE" speedFactor="1.16" vaporized=""/>