<?xml version="1.0" encoding="UTF-8"?>

<!-- generated on 2023-08-06 18:48:12 by Eclipse SUMO sumo Version 1.12.0
<configuration xmlns:xsi="http://www.w3.org/2001/XMLSchema-instance" xsi:noNamespaceSchemaLocation="http://sumo.dlr.de/xsd/sumoConfiguration.xsd">

    <input>
        <net-file value="../../data_generation/sq.net.xml"/>
        <route-files value="../../data_generation/sq.rou.xml"/>
    </input>

    <output>
        <tripinfo-output value="tripinfo.xml"/>
        <statistic-output value="statistic.xml"/>
    </output>

    <time>
        <begin value="0"/>
        <end value="3600"/>
    </time>

    <processing>
        <time-to-teleport value="-1"/>
    </processing>

    <traci_server>
        <remote-port value="48673"/>
    </traci_server>

    <random_number>
        <seed value="1395"/>
    </random_number>

    <gui_only>
        <gui-settings-file value="../../data_generation/view_HY_0402.xml"/>
    </gui_only>

</configuration>
-->

<tripinfos xmlns:xsi="http://www.w3.org/2001/XMLSchema-instance" xsi:noNamespaceSchemaLocation="http://sumo.dlr.de/xsd/tripinfo_file.xsd">
    <tripinfo id="22" depart="2.00" departLane="478_4way_291to4way_271_0" departPos="5.10" departSpeed="0.00" departDelay="0.17" arrival="12.00" arrivalLane="478_4way_291to4way_271_0" arrivalPos="85.60" arrivalSpeed="13.10" duration="10.00" routeLength="80.50" waitingTime="0.00" waitingCount="0" stopTime="0.00" timeLoss="3.42" rerouteNo="0" devices="tripinfo_22" vType="DEFAULT_VEHTYPE" speedFactor="1.00" vaporized=""/>
    <tripinfo id="18" depart="5.00" departLane="359_4way_230to4way_210_0" departPos="5.10" departSpeed="0.00" departDelay="3.50" arrival="23.00" arrivalLane="322_4way_210to4way_190_0" arrivalPos="85.60" arrivalSpeed="13.25" duration="18.00" routeLength="180.50" waitingTime="0.00" waitingCount="0" stopTime="0.00" timeLoss="3.64" rerouteNo="0" devices="tripinfo_18" vType="DEFAULT_VEHTYPE" speedFactor="0.96" vaporized=""/>
    <tripinfo id="160" depart="14.00" departLane="90_3way_382to4way_362_0" departPos="5.10" departSpeed="0.00" departDelay="0.67" arrival="24.00" arrivalLane="90_3way_382to4way_362_0" arrivalPos="85.60" arrivalSpeed="11.82" duration="10.00" routeLength="80.50" waitingTime="0.00" waitingCount="0" stopTime="0.00" timeLoss="3.18" rerouteNo="0" devices="tripinfo_160" vType="DEFAULT_VEHTYPE" speedFactor="0.88" vaporized=""/>
    <tripinfo id="167" depart="14.00" departLane="697_4way_54to4way_74_0" departPos="5.10" departSpeed="0.00" departDelay="0.09" arrival="24.00" arrivalLane="697_4way_54to4way_74_0" arrivalPos="85.60" arrivalSpeed="10.84" duration="10.00" routeLength="80.50" waitingTime="0.00" waitingCount="0" stopTime="0.00" timeLoss="2.92" rerouteNo="0" devices="tripinfo_167" vType="DEFAULT_VEHTYPE" speedFactor="0.85" vaporized=""/>
    <tripinfo id="198" depart="17.00" departLane="540_4way_324to4way_304_0" departPos="5.10" departSpeed="0.00" departDelay="0.51" arrival="27.00" arrivalLane="540_4way_324to4way_304_0" arrivalPos="85.60" arrivalSpeed="11.68" duration="10.00" routeLength="80.50" waitingTime="0.00" waitingCount="0" stopTime="0.00" timeLoss="2.83" rerouteNo="0" devices="tripinfo_198" vType="DEFAULT_VEHTYPE" speedFactor="0.87" vaporized=""/>
    <tripinfo id="27" depart="3.00" departLane="41_3way_180to3way_200_0" departPos="5.10" departSpeed="0.00" departDelay="0.75" arrival="29.00" arrivalLane="54_3way_220to4way_221_0" arrivalPos="85.60" arrivalSpeed="13.91" duration="26.00" routeLength="275.13" waitingTime="0.00" waitingCount="0" stopTime="0.00" timeLoss="6.23" rerouteNo="0" devices="tripinfo_27" vType="DEFAULT_VEHTYPE" speedFactor="1.03" vaporized=""/>
    <tripinfo id="332" depart="28.00" departLane="542_4way_305to4way_325_0" departPos="5.10" departSpeed="0.00" departDelay="0.34" arrival="38.00" arrivalLane="542_4way_305to4way_325_0" arrivalPos="85.60" arrivalSpeed="11.53" duration="10.00" routeLength="80.50" waitingTime="0.00" waitingCount="0" stopTime="0.00" timeLoss="2.69" rerouteNo="0" devices="tripinfo_332" vType="DEFAULT_VEHTYPE" speedFactor="0.83" vaporized=""/>
    <tripinfo id="156" depart="13.00" departLane="81_3way_379to3way_359_0" departPos="5.10" departSpeed="0.00" departDelay="0.00" arrival="47.00" arrivalLane="67_3way_319to3way_299_0" arrivalPos="85.60" arrivalSpeed="12.43" duration="34.00" routeLength="380.50" waitingTime="0.00" waitingCount="0" stopTime="0.00" timeLoss="3.78" rerouteNo="0" devices="tripinfo_156" vType="DEFAULT_VEHTYPE" speedFactor="0.91" vaporized=""/>
    <tripinfo id="445" depart="38.00" departLane="465_4way_267to4way_266_0" departPos="5.10" departSpeed="0.00" departDelay="0.93" arrival="48.00" arrivalLane="465_4way_267to4way_266_0" arrivalPos="85.60" arrivalSpeed="13.80" duration="10.00" routeLength="80.50" waitingTime="0.00" waitingCount="0" stopTime="0.00" timeLoss="3.46" rerouteNo="0" devices="tripinfo_445" vType="DEFAULT_VEHTYPE" speedFactor="1.02" vaporized=""/>
    <tripinfo id="7" depart="1.00" departLane="77_3way_359to3way_339_0" departPos="5.10" departSpeed="0.00" departDelay="0.42" arrival="50.00" arrivalLane="55_3way_259to3way_239_0" arrivalPos="85.60" arrivalSpeed="12.22" duration="49.00" routeLength="580.50" waitingTime="0.00" waitingCount="0" stopTime="0.00" timeLoss="5.04" rerouteNo="0" devices="tripinfo_7" vType="DEFAULT_VEHTYPE" speedFactor="0.95" vaporized=""/>
    <tripinfo id="351" depart="33.00" departLane="73_3way_339to3way_319_0" departPos="5.10" departSpeed="0.00" departDelay="3.76" arrival="52.00" arrivalLane="67_3way_319to3way_299_0" arrivalPos="85.60" arrivalSpeed="10.84" duration="19.00" routeLength="180.50" waitingTime="0.00" waitingCount="0" stopTime="0.00" timeLoss="3.39" rerouteNo="0" devices="tripinfo_351" vType="DEFAULT_VEHTYPE" speedFactor="0.85" vaporized=""/>
    <tripinfo id="149" depart="15.00" departLane="739_4way_78to4way_98_0" departPos="5.10" departSpeed="0.00" departDelay="2.59" arrival="56.00" arrivalLane="267_4way_158to4way_178_0" arrivalPos="85.60" arrivalSpeed="12.57" duration="41.00" routeLength="480.50" waitingTime="0.00" waitingCount="0" stopTime="0.00" timeLoss="4.65" rerouteNo="0" devices="tripinfo_149" vType="DEFAULT_VEHTYPE" speedFactor="0.95" vaporized=""/>
    <tripinfo id="163" depart="14.00" departLane="179_4way_132to4way_112_0" departPos="5.10" departSpeed="0.00" departDelay="0.42" arrival="56.00" arrivalLane="571_4way_52to4way_32_0" arrivalPos="85.60" arrivalSpeed="12.82" duration="42.00" routeLength="480.50" waitingTime="0.00" waitingCount="0" stopTime="0.00" timeLoss="4.94" rerouteNo="0" devices="tripinfo_163" vType="DEFAULT_VEHTYPE" speedFactor="0.94" vaporized=""/>
    <tripinfo id="318" depart="27.00" departLane="109_3way_392to3way_391_0" departPos="5.10" departSpeed="0.00" departDelay="0.51" arrival="60.00" arrivalLane="101_3way_389to3way_388_0" arrivalPos="85.60" arrivalSpeed="13.26" duration="33.00" routeLength="380.50" waitingTime="0.00" waitingCount="0" stopTime="0.00" timeLoss="5.06" rerouteNo="0" devices="tripinfo_318" vType="DEFAULT_VEHTYPE" speedFactor="1.01" vaporized=""/>
    <tripinfo id="531" depart="45.00" departLane="124_3way_5to3way_4_0" departPos="5.10" departSpeed="0.00" departDelay="0.77" arrival="61.00" arrivalLane="69_3way_4to3way_3_0" arrivalPos="85.60" arrivalSpeed="14.69" duration="16.00" routeLength="180.50" waitingTime="0.00" waitingCount="0" stopTime="0.00" timeLoss="4.05" rerouteNo="0" devices="tripinfo_531" vType="DEFAULT_VEHTYPE" speedFactor="1.11" vaporized=""/>
    <tripinfo id="610" depart="51.00" departLane="413_4way_238to4way_258_0" departPos="5.10" departSpeed="0.00" departDelay="0.19" arrival="61.00" arrivalLane="413_4way_238to4way_258_0" arrivalPos="85.60" arrivalSpeed="11.77" duration="10.00" routeLength="80.50" waitingTime="0.00" waitingCount="0" stopTime="0.00" timeLoss="3.58" rerouteNo="0" devices="tripinfo_610" vType="DEFAULT_VEHTYPE" speedFactor="0.93" vaporized=""/>
    <tripinfo id="210" depart="18.00" departLane="530_4way_318to4way_298_0" departPos="5.10" departSpeed="0.00" departDelay="0.51" arrival="64.00" arrivalLane="302_4way_198to4way_178_0" arrivalPos="85.60" arrivalSpeed="15.97" duration="46.00" routeLength="680.50" waitingTime="0.00" waitingCount="0" stopTime="0.00" timeLoss="4.87" rerouteNo="0" devices="tripinfo_210" vType="DEFAULT_VEHTYPE" speedFactor="1.20" vaporized=""/>
    <tripinfo id="126" depart="11.00" departLane="328_4way_193to4way_213_0" departPos="5.10" departSpeed="0.00" departDelay="0.50" arrival="65.00" arrivalLane="560_4way_313to4way_333_0" arrivalPos="85.60" arrivalSpeed="13.54" duration="54.00" routeLength="680.50" waitingTime="0.00" waitingCount="0" stopTime="0.00" timeLoss="4.95" rerouteNo="0" devices="tripinfo_126" vType="DEFAULT_VEHTYPE" speedFactor="1.01" vaporized=""/>
    <tripinfo id="37" depart="4.00" departLane="27_3way_16to3way_15_0" departPos="5.10" departSpeed="0.00" departDelay="0.92" arrival="69.00" arrivalLane="183_4way_93to4way_113_0" arrivalPos="85.60" arrivalSpeed="12.76" duration="65.00" routeLength="775.13" waitingTime="0.00" waitingCount="0" stopTime="0.00" timeLoss="7.27" rerouteNo="0" devices="tripinfo_37" vType="DEFAULT_VEHTYPE" speedFactor="0.99" vaporized=""/>
    <tripinfo id="303" depart="26.00" departLane="148_4way_102to4way_103_0" departPos="5.10" departSpeed="0.00" departDelay="0.76" arrival="71.00" arrivalLane="148_4way_102to4way_103_0" arrivalPos="85.60" arrivalSpeed="6.33" duration="45.00" routeLength="80.50" waitingTime="31.00" waitingCount="1" stopTime="0.00" timeLoss="38.97" rerouteNo="0" devices="tripinfo_303" vType="DEFAULT_VEHTYPE" speedFactor="1.02" vaporized=""/>
    <tripinfo id="324" depart="27.00" departLane="120_3way_396to4way_376_0" departPos="5.10" departSpeed="0.00" departDelay="0.01" arrival="75.00" arrivalLane="666_4way_376to4way_375_0" arrivalPos="85.60" arrivalSpeed="4.36" duration="48.00" routeLength="175.13" waitingTime="23.00" waitingCount="2" stopTime="0.00" timeLoss="35.22" rerouteNo="0" devices="tripinfo_324" vType="DEFAULT_VEHTYPE" speedFactor="1.05" vaporized=""/>
    <tripinfo id="732" depart="61.00" departLane="633_4way_351to4way_352_0" departPos="5.10" departSpeed="0.00" departDelay="0.02" arrival="75.00" arrivalLane="635_4way_352to4way_353_0" arrivalPos="85.60" arrivalSpeed="16.52" duration="14.00" routeLength="180.50" waitingTime="0.00" waitingCount="0" stopTime="0.00" timeLoss="3.39" rerouteNo="0" devices="tripinfo_732" vType="DEFAULT_VEHTYPE" speedFactor="1.22" vaporized=""/>
    <tripinfo id="26" depart="3.00" departLane="115_3way_394to3way_395_0" departPos="5.10" departSpeed="0.00" departDelay="0.83" arrival="76.00" arrivalLane="530_4way_318to4way_298_0" arrivalPos="85.60" arrivalSpeed="14.21" duration="73.00" routeLength="875.13" waitingTime="0.00" waitingCount="0" stopTime="0.00" timeLoss="11.01" rerouteNo="0" devices="tripinfo_26" vType="DEFAULT_VEHTYPE" speedFactor="1.03" vaporized=""/>
    <tripinfo id="148" depart="13.00" departLane="118_4way_375to3way_395_0" departPos="5.10" departSpeed="0.00" departDelay="0.67" arrival="76.00" arrivalLane="117_3way_395to3way_396_0" arrivalPos="85.60" arrivalSpeed="13.95" duration="63.00" routeLength="175.13" waitingTime="41.00" waitingCount="1" stopTime="0.00" timeLoss="50.31" rerouteNo="0" devices="tripinfo_148" vType="DEFAULT_VEHTYPE" speedFactor="1.07" vaporized=""/>
    <tripinfo id="341" depart="29.00" departLane="730_4way_93to4way_73_0" departPos="5.10" departSpeed="0.00" departDelay="0.59" arrival="76.00" arrivalLane="15_3way_13to3way_12_0" arrivalPos="85.60" arrivalSpeed="14.96" duration="47.00" routeLength="475.13" waitingTime="5.00" waitingCount="1" stopTime="0.00" timeLoss="15.63" rerouteNo="0" devices="tripinfo_341" vType="DEFAULT_VEHTYPE" speedFactor="1.12" vaporized=""/>
    <tripinfo id="536" depart="46.00" departLane="671_4way_41to4way_61_0" departPos="5.10" departSpeed="0.00" departDelay="1.35" arrival="76.00" arrivalLane="707_4way_62to4way_63_0" arrivalPos="85.60" arrivalSpeed="14.09" duration="30.00" routeLength="275.13" waitingTime="0.00" waitingCount="0" stopTime="0.00" timeLoss="10.85" rerouteNo="0" devices="tripinfo_536" vType="DEFAULT_VEHTYPE" speedFactor="1.06" vaporized=""/>
    <tripinfo id="9" depart="1.00" departLane="733_4way_76to4way_75_0" departPos="5.10" departSpeed="0.00" departDelay="0.25" arrival="77.00" arrivalLane="731_4way_75to4way_74_0" arrivalPos="85.60" arrivalSpeed="12.35" duration="76.00" routeLength="180.50" waitingTime="54.00" waitingCount="1" stopTime="0.00" timeLoss="61.23" rerouteNo="0" devices="tripinfo_9" vType="DEFAULT_VEHTYPE" speedFactor="0.91" vaporized=""/>
    <tripinfo id="203" depart="17.00" departLane="708_4way_62to4way_82_0" departPos="5.10" departSpeed="0.00" departDelay="0.09" arrival="77.00" arrivalLane="742_4way_83to4way_84_0" arrivalPos="85.60" arrivalSpeed="13.03" duration="60.00" routeLength="275.13" waitingTime="27.00" waitingCount="1" stopTime="0.00" timeLoss="38.06" rerouteNo="0" devices="tripinfo_203" vType="DEFAULT_VEHTYPE" speedFactor="0.95" vaporized=""/>
    <tripinfo id="262" depart="22.00" departLane="714_4way_85to4way_65_0" departPos="5.10" departSpeed="0.00" departDelay="0.17" arrival="77.00" arrivalLane="124_3way_5to3way_4_0" arrivalPos="85.60" arrivalSpeed="12.64" duration="55.00" routeLength="475.13" waitingTime="6.00" waitingCount="1" stopTime="0.00" timeLoss="17.58" rerouteNo="0" devices="tripinfo_262" vType="DEFAULT_VEHTYPE" speedFactor="0.93" vaporized=""/>
    <tripinfo id="47" depart="4.00" departLane="357_4way_21to4way_41_0" departPos="5.10" departSpeed="0.00" departDelay="0.08" arrival="80.00" arrivalLane="235_4way_142to4way_143_0" arrivalPos="85.60" arrivalSpeed="11.48" duration="76.00" routeLength="775.13" waitingTime="0.00" waitingCount="0" stopTime="0.00" timeLoss="12.65" rerouteNo="0" devices="tripinfo_47" vType="DEFAULT_VEHTYPE" speedFactor="0.90" vaporized=""/>
    <tripinfo id="712" depart="60.00" departLane="418_4way_242to4way_243_0" departPos="5.10" departSpeed="0.00" departDelay="0.69" arrival="80.00" arrivalLane="382_4way_243to4way_223_0" arrivalPos="85.60" arrivalSpeed="13.87" duration="20.00" routeLength="175.13" waitingTime="0.00" waitingCount="0" stopTime="0.00" timeLoss="6.59" rerouteNo="0" devices="tripinfo_712" vType="DEFAULT_VEHTYPE" speedFactor="1.03" vaporized=""/>
    <tripinfo id="164" depart="14.00" departLane="207_4way_145to4way_125_0" departPos="5.10" departSpeed="0.00" departDelay="0.34" arrival="82.00" arrivalLane="151_4way_104to4way_103_0" arrivalPos="85.60" arrivalSpeed="10.38" duration="68.00" routeLength="375.13" waitingTime="27.00" waitingCount="1" stopTime="0.00" timeLoss="42.25" rerouteNo="0" devices="tripinfo_164" vType="DEFAULT_VEHTYPE" speedFactor="1.11" vaporized=""/>
    <tripinfo id="14" depart="2.00" departLane="716_4way_66to4way_86_0" departPos="5.10" departSpeed="0.00" departDelay="0.83" arrival="83.00" arrivalLane="315_4way_187to4way_188_0" arrivalPos="85.60" arrivalSpeed="6.65" duration="81.00" routeLength="775.13" waitingTime="7.00" waitingCount="1" stopTime="0.00" timeLoss="21.65" rerouteNo="0" devices="tripinfo_14" vType="DEFAULT_VEHTYPE" speedFactor="0.95" vaporized=""/>
    <tripinfo id="93" depart="11.00" departLane="628_4way_369to4way_349_0" departPos="5.10" departSpeed="0.00" departDelay="3.25" arrival="83.00" arrivalLane="547_4way_309to4way_308_0" arrivalPos="85.60" arrivalSpeed="7.30" duration="72.00" routeLength="375.13" waitingTime="26.00" waitingCount="2" stopTime="0.00" timeLoss="44.27" rerouteNo="0" devices="tripinfo_93" vType="DEFAULT_VEHTYPE" speedFactor="1.00" vaporized=""/>
    <tripinfo id="175" depart="15.00" departLane="23_3way_15to3way_14_0" departPos="5.10" departSpeed="0.00" departDelay="0.42" arrival="83.00" arrivalLane="726_4way_71to4way_91_0" arrivalPos="85.60" arrivalSpeed="12.86" duration="68.00" routeLength="775.13" waitingTime="0.00" waitingCount="0" stopTime="0.00" timeLoss="10.87" rerouteNo="0" devices="tripinfo_175" vType="DEFAULT_VEHTYPE" speedFactor="0.99" vaporized=""/>
    <tripinfo id="533" depart="45.00" departLane="14_4way_118to3way_119_0" departPos="5.10" departSpeed="0.00" departDelay="0.60" arrival="84.00" arrivalLane="138_3way_99to3way_79_0" arrivalPos="85.60" arrivalSpeed="14.64" duration="39.00" routeLength="275.13" waitingTime="11.00" waitingCount="1" stopTime="0.00" timeLoss="19.23" rerouteNo="0" devices="tripinfo_533" vType="DEFAULT_VEHTYPE" speedFactor="1.09" vaporized=""/>
    <tripinfo id="115" depart="10.00" departLane="455_4way_261to4way_262_0" departPos="5.10" departSpeed="0.00" departDelay="0.42" arrival="85.00" arrivalLane="380_4way_242to4way_222_0" arrivalPos="85.60" arrivalSpeed="11.92" duration="75.00" routeLength="275.13" waitingTime="43.00" waitingCount="1" stopTime="0.00" timeLoss="52.65" rerouteNo="0" devices="tripinfo_115" vType="DEFAULT_VEHTYPE" speedFactor="0.92" vaporized=""/>
    <tripinfo id="285" depart="24.00" departLane="28_3way_15to4way_35_0" departPos="5.10" departSpeed="0.00" departDelay="0.26" arrival="85.00" arrivalLane="190_4way_116to4way_117_0" arrivalPos="85.60" arrivalSpeed="11.99" duration="61.00" routeLength="675.13" waitingTime="0.00" waitingCount="0" stopTime="0.00" timeLoss="7.22" rerouteNo="0" devices="tripinfo_285" vType="DEFAULT_VEHTYPE" speedFactor="0.93" vaporized=""/>
    <tripinfo id="118" depart="10.00" departLane="745_4way_87to4way_86_0" departPos="5.10" departSpeed="0.00" departDelay="0.17" arrival="86.00" arrivalLane="159_4way_85to4way_105_0" arrivalPos="85.60" arrivalSpeed="13.88" duration="76.00" routeLength="275.13" waitingTime="43.00" waitingCount="1" stopTime="0.00" timeLoss="55.85" rerouteNo="0" devices="tripinfo_118" vType="DEFAULT_VEHTYPE" speedFactor="1.05" vaporized=""/>
    <tripinfo id="430" depart="36.00" departLane="231_4way_137to4way_157_0" departPos="5.10" departSpeed="0.00" departDelay="0.18" arrival="88.00" arrivalLane="412_4way_237to4way_257_0" arrivalPos="85.60" arrivalSpeed="11.26" duration="52.00" routeLength="580.50" waitingTime="0.00" waitingCount="0" stopTime="0.00" timeLoss="4.90" rerouteNo="0" devices="tripinfo_430" vType="DEFAULT_VEHTYPE" speedFactor="0.90" vaporized=""/>
    <tripinfo id="741" depart="62.00" departLane="40_4way_38to3way_18_0" departPos="5.10" departSpeed="0.00" departDelay="0.27" arrival="88.00" arrivalLane="31_3way_17to3way_16_0" arrivalPos="85.60" arrivalSpeed="14.77" duration="26.00" routeLength="275.13" waitingTime="0.00" waitingCount="0" stopTime="0.00" timeLoss="6.34" rerouteNo="0" devices="tripinfo_741" vType="DEFAULT_VEHTYPE" speedFactor="1.12" vaporized=""/>
    <tripinfo id="345" depart="29.00" departLane="16_3way_12to4way_32_0" departPos="5.10" departSpeed="0.00" departDelay="0.26" arrival="91.00" arrivalLane="698_4way_55to4way_56_0" arrivalPos="85.60" arrivalSpeed="14.24" duration="62.00" routeLength="575.13" waitingTime="9.00" waitingCount="1" stopTime="0.00" timeLoss="21.80" rerouteNo="0" devices="tripinfo_345" vType="DEFAULT_VEHTYPE" speedFactor="1.05" vaporized=""/>
    <tripinfo id="418" depart="35.00" departLane="131_3way_59to4way_58_0" departPos="5.10" departSpeed="0.00" departDelay="0.18" arrival="92.00" arrivalLane="703_4way_57to4way_77_0" arrivalPos="85.60" arrivalSpeed="10.21" duration="57.00" routeLength="275.13" waitingTime="20.00" waitingCount="1" stopTime="0.00" timeLoss="30.41" rerouteNo="0" devices="tripinfo_418" vType="DEFAULT_VEHTYPE" speedFactor="0.79" vaporized=""/>
    <tripinfo id="439" depart="37.00" departLane="695_4way_53to4way_73_0" departPos="5.10" departSpeed="0.00" departDelay="0.43" arrival="92.00" arrivalLane="735_4way_76to4way_77_0" arrivalPos="85.60" arrivalSpeed="13.83" duration="55.00" routeLength="475.13" waitingTime="7.00" waitingCount="1" stopTime="0.00" timeLoss="20.26" rerouteNo="0" devices="tripinfo_439" vType="DEFAULT_VEHTYPE" speedFactor="1.01" vaporized=""/>
    <tripinfo id="460" depart="39.00" departLane="248_4way_148to4way_168_0" departPos="5.10" departSpeed="0.00" departDelay="0.68" arrival="92.00" arrivalLane="321_4way_190to4way_191_0" arrivalPos="85.60" arrivalSpeed="6.80" duration="53.00" routeLength="475.13" waitingTime="1.00" waitingCount="1" stopTime="0.00" timeLoss="18.88" rerouteNo="0" devices="tripinfo_460" vType="DEFAULT_VEHTYPE" speedFactor="1.04" vaporized=""/>
    <tripinfo id="59" depart="7.00" departLane="179_4way_112to4way_132_0" departPos="5.10" departSpeed="0.00" departDelay="2.08" arrival="93.00" arrivalLane="296_4way_175to4way_176_0" arrivalPos="85.60" arrivalSpeed="13.18" duration="86.00" routeLength="675.13" waitingTime="24.00" waitingCount="1" stopTime="0.00" timeLoss="37.93" rerouteNo="0" devices="tripinfo_59" vType="DEFAULT_VEHTYPE" speedFactor="1.03" vaporized=""/>
    <tripinfo id="89" depart="8.00" departLane="15_3way_13to3way_12_0" departPos="5.10" departSpeed="0.00" departDelay="0.59" arrival="93.00" arrivalLane="291_4way_172to4way_192_0" arrivalPos="85.60" arrivalSpeed="12.66" duration="85.00" routeLength="975.13" waitingTime="0.00" waitingCount="0" stopTime="0.00" timeLoss="8.58" rerouteNo="0" devices="tripinfo_89" vType="DEFAULT_VEHTYPE" speedFactor="0.93" vaporized=""/>
    <tripinfo id="973" depart="84.00" departLane="69_3way_4to3way_3_0" departPos="5.10" departSpeed="0.00" departDelay="2.95" arrival="93.00" arrivalLane="69_3way_4to3way_3_0" arrivalPos="85.60" arrivalSpeed="12.66" duration="9.00" routeLength="80.50" waitingTime="0.00" waitingCount="0" stopTime="0.00" timeLoss="2.68" rerouteNo="0" devices="tripinfo_973" vType="DEFAULT_VEHTYPE" speedFactor="0.93" vaporized=""/>
    <tripinfo id="278" depart="24.00" departLane="434_4way_26to4way_25_0" departPos="5.10" departSpeed="0.00" departDelay="0.84" arrival="94.00" arrivalLane="375_4way_23to4way_22_0" arrivalPos="85.60" arrivalSpeed="12.58" duration="70.00" routeLength="380.50" waitingTime="30.00" waitingCount="1" stopTime="0.00" timeLoss="39.46" rerouteNo="0" devices="tripinfo_278" vType="DEFAULT_VEHTYPE" speedFactor="0.91" vaporized=""/>
    <tripinfo id="501" depart="42.00" departLane="363_4way_232to4way_212_0" departPos="5.10" departSpeed="0.00" departDelay="0.27" arrival="94.00" arrivalLane="315_4way_188to4way_187_0" arrivalPos="85.60" arrivalSpeed="15.12" duration="52.00" routeLength="675.13" waitingTime="0.00" waitingCount="0" stopTime="0.00" timeLoss="8.91" rerouteNo="0" devices="tripinfo_501" vType="DEFAULT_VEHTYPE" speedFactor="1.16" vaporized=""/>
    <tripinfo id="579" depart="49.00" departLane="108_4way_370to3way_390_0" departPos="5.10" departSpeed="0.00" departDelay="0.77" arrival="94.00" arrivalLane="111_3way_392to3way_393_0" arrivalPos="85.60" arrivalSpeed="11.82" duration="45.00" routeLength="375.13" waitingTime="6.00" waitingCount="1" stopTime="0.00" timeLoss="14.35" rerouteNo="0" devices="tripinfo_579" vType="DEFAULT_VEHTYPE" speedFactor="0.92" vaporized=""/>
    <tripinfo id="884" depart="75.00" departLane="315_4way_187to4way_188_0" departPos="5.10" departSpeed="0.00" departDelay="1.36" arrival="94.00" arrivalLane="317_4way_188to4way_189_0" arrivalPos="85.60" arrivalSpeed="11.51" duration="19.00" routeLength="180.50" waitingTime="0.00" waitingCount="0" stopTime="0.00" timeLoss="3.46" rerouteNo="0" devices="tripinfo_884" vType="DEFAULT_VEHTYPE" speedFactor="0.87" vaporized=""/>
    <tripinfo id="317" depart="27.00" departLane="669_4way_58to4way_38_0" departPos="5.10" departSpeed="0.00" departDelay="0.59" arrival="95.00" arrivalLane="609_4way_35to4way_34_0" arrivalPos="85.60" arrivalSpeed="14.73" duration="68.00" routeLength="475.13" waitingTime="21.00" waitingCount="1" stopTime="0.00" timeLoss="36.61" rerouteNo="0" devices="tripinfo_317" vType="DEFAULT_VEHTYPE" speedFactor="1.11" vaporized=""/>
    <tripinfo id="507" depart="43.00" departLane="453_4way_26to4way_27_0" departPos="5.10" departSpeed="0.00" departDelay="0.77" arrival="95.00" arrivalLane="143_4way_29to3way_9_0" arrivalPos="85.60" arrivalSpeed="12.28" duration="52.00" routeLength="375.13" waitingTime="12.00" waitingCount="1" stopTime="0.00" timeLoss="23.09" rerouteNo="0" devices="tripinfo_507" vType="DEFAULT_VEHTYPE" speedFactor="0.97" vaporized=""/>
    <tripinfo id="103" depart="9.00" departLane="655_4way_366to4way_367_0" departPos="5.10" departSpeed="0.00" departDelay="0.42" arrival="96.00" arrivalLane="661_4way_370to4way_371_0" arrivalPos="85.60" arrivalSpeed="15.44" duration="87.00" routeLength="480.50" waitingTime="44.00" waitingCount="1" stopTime="0.00" timeLoss="56.45" rerouteNo="0" devices="tripinfo_103" vType="DEFAULT_VEHTYPE" speedFactor="1.15" vaporized=""/>
    <tripinfo id="95" depart="8.00" departLane="417_4way_241to4way_261_0" departPos="5.10" departSpeed="0.00" departDelay="0.09" arrival="97.00" arrivalLane="500_4way_284to4way_285_0" arrivalPos="85.60" arrivalSpeed="11.50" duration="89.00" routeLength="575.13" waitingTime="28.00" waitingCount="1" stopTime="0.00" timeLoss="40.27" rerouteNo="0" devices="tripinfo_95" vType="DEFAULT_VEHTYPE" speedFactor="0.88" vaporized=""/>
    <tripinfo id="357" depart="30.00" departLane="34_4way_161to3way_160_0" departPos="5.10" departSpeed="0.00" departDelay="0.26" arrival="98.00" arrivalLane="53_3way_220to3way_240_0" arrivalPos="85.60" arrivalSpeed="13.78" duration="68.00" routeLength="475.13" waitingTime="24.00" waitingCount="1" stopTime="0.00" timeLoss="34.27" rerouteNo="0" devices="tripinfo_357" vType="DEFAULT_VEHTYPE" speedFactor="1.04" vaporized=""/>
    <tripinfo id="378" depart="32.00" departLane="3_3way_1to4way_21_0" departPos="5.10" departSpeed="0.00" departDelay="0.51" arrival="98.00" arrivalLane="743_4way_84to4way_85_0" arrivalPos="85.60" arrivalSpeed="13.23" duration="66.00" routeLength="775.13" waitingTime="0.00" waitingCount="0" stopTime="0.00" timeLoss="10.51" rerouteNo="0" devices="tripinfo_378" vType="DEFAULT_VEHTYPE" speedFactor="1.03" vaporized=""/>
    <tripinfo id="891" depart="77.00" departLane="51_3way_239to3way_219_0" departPos="5.10" departSpeed="0.00" departDelay="2.78" arrival="98.00" arrivalLane="52_3way_219to4way_218_0" arrivalPos="85.60" arrivalSpeed="12.22" duration="21.00" routeLength="175.13" waitingTime="0.00" waitingCount="0" stopTime="0.00" timeLoss="5.58" rerouteNo="0" devices="tripinfo_891" vType="DEFAULT_VEHTYPE" speedFactor="0.90" vaporized=""/>
    <tripinfo id="251" depart="21.00" departLane="362_4way_213to4way_212_0" departPos="5.10" departSpeed="0.00" departDelay="0.09" arrival="100.00" arrivalLane="352_4way_209to4way_208_0" arrivalPos="85.60" arrivalSpeed="13.43" duration="79.00" routeLength="480.50" waitingTime="32.00" waitingCount="1" stopTime="0.00" timeLoss="43.75" rerouteNo="0" devices="tripinfo_251" vType="DEFAULT_VEHTYPE" speedFactor="0.99" vaporized=""/>
    <tripinfo id="887" depart="74.00" departLane="8_3way_100to3way_80_0" departPos="5.10" departSpeed="0.00" departDelay="0.11" arrival="100.00" arrivalLane="126_3way_60to3way_40_0" arrivalPos="85.60" arrivalSpeed="12.63" duration="26.00" routeLength="280.50" waitingTime="0.00" waitingCount="0" stopTime="0.00" timeLoss="4.21" rerouteNo="0" devices="tripinfo_887" vType="DEFAULT_VEHTYPE" speedFactor="0.96" vaporized=""/>
    <tripinfo id="719" depart="61.00" departLane="291_4way_172to4way_192_0" departPos="5.10" departSpeed="0.00" departDelay="1.11" arrival="102.00" arrivalLane="331_4way_195to4way_196_0" arrivalPos="85.60" arrivalSpeed="13.69" duration="41.00" routeLength="475.13" waitingTime="0.00" waitingCount="0" stopTime="0.00" timeLoss="6.22" rerouteNo="0" devices="tripinfo_719" vType="DEFAULT_VEHTYPE" speedFactor="1.02" vaporized=""/>
    <tripinfo id="1171" depart="98.00" departLane="476_4way_270to4way_290_0" departPos="5.10" departSpeed="0.00" departDelay="0.46" arrival="107.00" arrivalLane="476_4way_270to4way_290_0" arrivalPos="85.60" arrivalSpeed="13.34" duration="9.00" routeLength="80.50" waitingTime="0.00" waitingCount="0" stopTime="0.00" timeLoss="2.99" rerouteNo="0" devices="tripinfo_1171" vType="DEFAULT_VEHTYPE" speedFactor="0.97" vaporized=""/>
    <tripinfo id="142" depart="12.00" departLane="66_3way_280to4way_281_0" departPos="5.10" departSpeed="0.00" departDelay="0.17" arrival="108.00" arrivalLane="423_4way_264to4way_244_0" arrivalPos="85.60" arrivalSpeed="15.04" duration="96.00" routeLength="575.13" waitingTime="43.00" waitingCount="1" stopTime="0.00" timeLoss="56.37" rerouteNo="0" devices="tripinfo_142" vType="DEFAULT_VEHTYPE" speedFactor="1.09" vaporized=""/>
    <tripinfo id="1195" depart="100.00" departLane="601_4way_354to4way_334_0" departPos="5.10" departSpeed="0.00" departDelay="0.46" arrival="110.00" arrivalLane="601_4way_354to4way_334_0" arrivalPos="85.60" arrivalSpeed="12.85" duration="10.00" routeLength="80.50" waitingTime="0.00" waitingCount="0" stopTime="0.00" timeLoss="3.23" rerouteNo="0" devices="tripinfo_1195" vType="DEFAULT_VEHTYPE" speedFactor="0.93" vaporized=""/>
    <tripinfo id="386" depart="33.00" departLane="25_3way_140to3way_160_0" departPos="5.10" departSpeed="0.00" departDelay="0.85" arrival="111.00" arrivalLane="66_3way_280to4way_281_0" arrivalPos="85.60" arrivalSpeed="10.95" duration="78.00" routeLength="775.13" waitingTime="0.00" waitingCount="0" stopTime="0.00" timeLoss="8.19" rerouteNo="0" devices="tripinfo_386" vType="DEFAULT_VEHTYPE" speedFactor="0.82" vaporized=""/>
    <tripinfo id="500" depart="42.00" departLane="125_3way_4to4way_24_0" departPos="5.10" departSpeed="0.00" departDelay="0.35" arrival="111.00" arrivalLane="512_4way_29to4way_30_0" arrivalPos="85.60" arrivalSpeed="12.68" duration="69.00" routeLength="675.13" waitingTime="2.00" waitingCount="1" stopTime="0.00" timeLoss="14.70" rerouteNo="0" devices="tripinfo_500" vType="DEFAULT_VEHTYPE" speedFactor="0.92" vaporized=""/>