<?xml version="1.0" encoding="UTF-8"?>

<!-- generated on 2023-07-27 15:19:01 by Eclipse SUMO sumo Version 1.12.0
<configuration xmlns:xsi="http://www.w3.org/2001/XMLSchema-instance" xsi:noNamespaceSchemaLocation="http://sumo.dlr.de/xsd/sumoConfiguration.xsd">

    <input>
        <net-file value="../../data_generation/sq.net.xml"/>
        <route-files value="../../data_generation/sq.rou.xml"/>
    </input>

    <output>
        <tripinfo-output value="tripinfo.xml"/>
        <statistic-output value="statistic.xml"/>
    </output>

    <time>
        <begin value="0"/>
        <end value="3600"/>
    </time>

    <processing>
        <time-to-teleport value="-1"/>
    </processing>

    <traci_server>
        <remote-port value="44433"/>
    </traci_server>

    <random_number>
        <seed value="1395"/>
    </random_number>

    <gui_only>
        <gui-settings-file value="../../data_generation/view_HY_0402.xml"/>
    </gui_only>

</configuration>
-->

<tripinfos xmlns:xsi="http://www.w3.org/2001/XMLSchema-instance" xsi:noNamespaceSchemaLocation="http://sumo.dlr.de/xsd/tripinfo_file.xsd">
    <tripinfo id="1" depart="1.00" departLane="23_3way_5to4way_6_0" departPos="5.10" departSpeed="0.00" departDelay="0.71" arrival="11.00" arrivalLane="23_3way_5to4way_6_0" arrivalPos="85.60" arrivalSpeed="13.41" duration="10.00" routeLength="80.50" waitingTime="0.00" waitingCount="0" stopTime="0.00" timeLoss="3.58" rerouteNo="0" devices="tripinfo_1" vType="DEFAULT_VEHTYPE" speedFactor="1.04" vaporized=""/>
    <tripinfo id="16" depart="5.00" departLane="3_4way_6to3way_1_0" departPos="5.10" departSpeed="0.00" departDelay="0.43" arrival="16.00" arrivalLane="3_4way_6to3way_1_0" arrivalPos="85.60" arrivalSpeed="11.30" duration="11.00" routeLength="80.50" waitingTime="0.00" waitingCount="0" stopTime="0.00" timeLoss="3.69" rerouteNo="0" devices="tripinfo_16" vType="DEFAULT_VEHTYPE" speedFactor="0.90" vaporized=""/>
    <tripinfo id="21" depart="6.00" departLane="18_3way_22to3way_23_0" departPos="5.10" departSpeed="0.00" departDelay="0.00" arrival="16.00" arrivalLane="18_3way_22to3way_23_0" arrivalPos="85.60" arrivalSpeed="10.97" duration="10.00" routeLength="80.50" waitingTime="0.00" waitingCount="0" stopTime="0.00" timeLoss="2.56" rerouteNo="0" devices="tripinfo_21" vType="DEFAULT_VEHTYPE" speedFactor="0.82" vaporized=""/>
    <tripinfo id="24" depart="7.00" departLane="8_3way_9to3way_14_0" departPos="5.10" departSpeed="0.00" departDelay="0.14" arrival="17.00" arrivalLane="8_3way_9to3way_14_0" arrivalPos="85.60" arrivalSpeed="12.98" duration="10.00" routeLength="80.50" waitingTime="0.00" waitingCount="0" stopTime="0.00" timeLoss="3.18" rerouteNo="0" devices="tripinfo_24" vType="DEFAULT_VEHTYPE" speedFactor="0.97" vaporized=""/>
    <tripinfo id="15" depart="5.00" departLane="5_3way_5to3way_10_0" departPos="5.10" departSpeed="0.00" departDelay="0.71" arrival="22.00" arrivalLane="4_3way_10to3way_15_0" arrivalPos="85.60" arrivalSpeed="13.80" duration="17.00" routeLength="180.50" waitingTime="0.00" waitingCount="0" stopTime="0.00" timeLoss="4.30" rerouteNo="0" devices="tripinfo_15" vType="DEFAULT_VEHTYPE" speedFactor="1.05" vaporized=""/>
    <tripinfo id="45" depart="13.00" departLane="3_3way_1to4way_6_0" departPos="5.10" departSpeed="0.00" departDelay="0.14" arrival="23.00" arrivalLane="3_3way_1to4way_6_0" arrivalPos="85.60" arrivalSpeed="13.70" duration="10.00" routeLength="80.50" waitingTime="0.00" waitingCount="0" stopTime="0.00" timeLoss="3.55" rerouteNo="0" devices="tripinfo_45" vType="DEFAULT_VEHTYPE" speedFactor="1.00" vaporized=""/>
    <tripinfo id="22" depart="7.00" departLane="4_3way_15to3way_10_0" departPos="5.10" departSpeed="0.00" departDelay="0.71" arrival="24.00" arrivalLane="5_3way_10to3way_5_0" arrivalPos="85.60" arrivalSpeed="13.55" duration="17.00" routeLength="180.50" waitingTime="0.00" waitingCount="0" stopTime="0.00" timeLoss="3.24" rerouteNo="0" devices="tripinfo_22" vType="DEFAULT_VEHTYPE" speedFactor="1.00" vaporized=""/>
    <tripinfo id="27" depart="8.00" departLane="21_3way_3to3way_9_0" departPos="5.10" departSpeed="0.00" departDelay="0.29" arrival="24.00" arrivalLane="21_3way_3to3way_9_0" arrivalPos="188.80" arrivalSpeed="14.12" duration="16.00" routeLength="183.70" waitingTime="0.00" waitingCount="0" stopTime="0.00" timeLoss="3.11" rerouteNo="0" devices="tripinfo_27" vType="DEFAULT_VEHTYPE" speedFactor="1.03" vaporized=""/>
    <tripinfo id="63" depart="18.00" departLane="23_4way_6to3way_5_0" departPos="5.10" departSpeed="0.00" departDelay="0.00" arrival="27.00" arrivalLane="23_4way_6to3way_5_0" arrivalPos="85.60" arrivalSpeed="12.52" duration="9.00" routeLength="80.50" waitingTime="0.00" waitingCount="0" stopTime="0.00" timeLoss="2.86" rerouteNo="0" devices="tripinfo_63" vType="DEFAULT_VEHTYPE" speedFactor="0.95" vaporized=""/>
    <tripinfo id="64" depart="19.00" departLane="27_4way_11to4way_6_0" departPos="5.10" departSpeed="0.00" departDelay="0.71" arrival="29.00" arrivalLane="27_4way_11to4way_6_0" arrivalPos="85.60" arrivalSpeed="13.17" duration="10.00" routeLength="80.50" waitingTime="0.00" waitingCount="0" stopTime="0.00" timeLoss="3.65" rerouteNo="0" devices="tripinfo_64" vType="DEFAULT_VEHTYPE" speedFactor="0.96" vaporized=""/>
    <tripinfo id="71" depart="21.00" departLane="24_4way_8to3way_9_0" departPos="5.10" departSpeed="0.00" departDelay="0.71" arrival="30.00" arrivalLane="24_4way_8to3way_9_0" arrivalPos="85.60" arrivalSpeed="15.63" duration="9.00" routeLength="80.50" waitingTime="0.00" waitingCount="0" stopTime="0.00" timeLoss="3.74" rerouteNo="0" devices="tripinfo_71" vType="DEFAULT_VEHTYPE" speedFactor="1.13" vaporized=""/>
    <tripinfo id="76" depart="25.00" departLane="11_3way_15to4way_16_0" departPos="5.10" departSpeed="0.00" departDelay="3.29" arrival="34.00" arrivalLane="11_3way_15to4way_16_0" arrivalPos="85.60" arrivalSpeed="11.38" duration="9.00" routeLength="80.50" waitingTime="0.00" waitingCount="0" stopTime="0.00" timeLoss="2.50" rerouteNo="0" devices="tripinfo_76" vType="DEFAULT_VEHTYPE" speedFactor="0.90" vaporized=""/>
    <tripinfo id="78" depart="24.00" departLane="34_4way_17to4way_18_0" departPos="5.10" departSpeed="0.00" departDelay="1.71" arrival="34.00" arrivalLane="34_4way_17to4way_18_0" arrivalPos="85.60" arrivalSpeed="13.53" duration="10.00" routeLength="80.50" waitingTime="0.00" waitingCount="0" stopTime="0.00" timeLoss="3.75" rerouteNo="0" devices="tripinfo_78" vType="DEFAULT_VEHTYPE" speedFactor="1.03" vaporized=""/>
    <tripinfo id="50" depart="15.00" departLane="13_4way_18to3way_19_0" departPos="5.10" departSpeed="0.00" departDelay="0.71" arrival="35.00" arrivalLane="7_3way_19to3way_14_0" arrivalPos="85.60" arrivalSpeed="13.93" duration="20.00" routeLength="175.13" waitingTime="0.00" waitingCount="0" stopTime="0.00" timeLoss="5.52" rerouteNo="0" devices="tripinfo_50" vType="DEFAULT_VEHTYPE" speedFactor="1.01" vaporized=""/>
    <tripinfo id="51" depart="15.00" departLane="33_4way_17to4way_16_0" departPos="5.10" departSpeed="0.00" departDelay="0.43" arrival="36.00" arrivalLane="11_4way_16to3way_15_0" arrivalPos="85.60" arrivalSpeed="9.13" duration="21.00" routeLength="180.50" waitingTime="0.00" waitingCount="0" stopTime="0.00" timeLoss="3.10" rerouteNo="0" devices="tripinfo_51" vType="DEFAULT_VEHTYPE" speedFactor="0.74" vaporized=""/>
    <tripinfo id="89" depart="26.00" departLane="23_4way_6to3way_5_0" departPos="5.10" departSpeed="0.00" departDelay="0.57" arrival="36.00" arrivalLane="23_4way_6to3way_5_0" arrivalPos="85.60" arrivalSpeed="12.24" duration="10.00" routeLength="80.50" waitingTime="0.00" waitingCount="0" stopTime="0.00" timeLoss="2.98" rerouteNo="0" devices="tripinfo_89" vType="DEFAULT_VEHTYPE" speedFactor="0.93" vaporized=""/>
    <tripinfo id="98" depart="28.00" departLane="1_3way_2to3way_1_0" departPos="5.10" departSpeed="0.00" departDelay="0.00" arrival="37.00" arrivalLane="1_3way_2to3way_1_0" arrivalPos="85.60" arrivalSpeed="11.84" duration="9.00" routeLength="80.50" waitingTime="0.00" waitingCount="0" stopTime="0.00" timeLoss="2.43" rerouteNo="0" devices="tripinfo_98" vType="DEFAULT_VEHTYPE" speedFactor="0.88" vaporized=""/>
    <tripinfo id="32" depart="10.00" departLane="11_3way_15to4way_16_0" departPos="5.10" departSpeed="0.00" departDelay="0.86" arrival="38.00" arrivalLane="34_4way_17to4way_18_0" arrivalPos="85.60" arrivalSpeed="9.37" duration="28.00" routeLength="280.50" waitingTime="0.00" waitingCount="0" stopTime="0.00" timeLoss="7.79" rerouteNo="0" devices="tripinfo_32" vType="DEFAULT_VEHTYPE" speedFactor="1.00" vaporized=""/>
    <tripinfo id="94" depart="29.00" departLane="7_3way_19to3way_14_0" departPos="5.10" departSpeed="0.00" departDelay="2.14" arrival="38.00" arrivalLane="7_3way_19to3way_14_0" arrivalPos="85.60" arrivalSpeed="14.88" duration="9.00" routeLength="80.50" waitingTime="0.00" waitingCount="0" stopTime="0.00" timeLoss="3.56" rerouteNo="0" devices="tripinfo_94" vType="DEFAULT_VEHTYPE" speedFactor="1.08" vaporized=""/>
    <tripinfo id="99" depart="29.00" departLane="11_3way_15to4way_16_0" departPos="5.10" departSpeed="0.00" departDelay="0.72" arrival="38.00" arrivalLane="11_3way_15to4way_16_0" arrivalPos="85.60" arrivalSpeed="12.28" duration="9.00" routeLength="80.50" waitingTime="0.00" waitingCount="0" stopTime="0.00" timeLoss="2.94" rerouteNo="0" devices="tripinfo_99" vType="DEFAULT_VEHTYPE" speedFactor="0.97" vaporized=""/>
    <tripinfo id="7" depart="2.00" departLane="33_4way_17to4way_16_0" departPos="5.10" departSpeed="0.00" departDelay="0.00" arrival="39.00" arrivalLane="3_4way_6to3way_1_0" arrivalPos="85.60" arrivalSpeed="11.96" duration="37.00" routeLength="380.30" waitingTime="0.00" waitingCount="0" stopTime="0.00" timeLoss="7.09" rerouteNo="0" devices="tripinfo_7" vType="DEFAULT_VEHTYPE" speedFactor="0.95" vaporized=""/>
    <tripinfo id="69" depart="20.00" departLane="32_4way_13to4way_8_0" departPos="5.10" departSpeed="0.00" departDelay="0.29" arrival="39.00" arrivalLane="22_4way_8to3way_3_0" arrivalPos="85.60" arrivalSpeed="10.20" duration="19.00" routeLength="180.50" waitingTime="0.00" waitingCount="0" stopTime="0.00" timeLoss="3.05" rerouteNo="0" devices="tripinfo_69" vType="DEFAULT_VEHTYPE" speedFactor="0.82" vaporized=""/>
    <tripinfo id="26" depart="8.00" departLane="13_3way_19to4way_18_0" departPos="5.10" departSpeed="0.00" departDelay="0.57" arrival="40.00" arrivalLane="11_4way_16to3way_15_0" arrivalPos="85.60" arrivalSpeed="13.88" duration="32.00" routeLength="380.50" waitingTime="0.00" waitingCount="0" stopTime="0.00" timeLoss="4.66" rerouteNo="0" devices="tripinfo_26" vType="DEFAULT_VEHTYPE" speedFactor="1.03" vaporized=""/>
    <tripinfo id="65" depart="22.00" departLane="11_3way_15to4way_16_0" departPos="5.10" departSpeed="0.00" departDelay="3.43" arrival="40.00" arrivalLane="26_4way_16to4way_11_0" arrivalPos="85.60" arrivalSpeed="15.38" duration="18.00" routeLength="175.13" waitingTime="0.00" waitingCount="0" stopTime="0.00" timeLoss="6.51" rerouteNo="0" devices="tripinfo_65" vType="DEFAULT_VEHTYPE" speedFactor="1.20" vaporized=""/>
    <tripinfo id="68" depart="22.00" departLane="33_4way_16to4way_17_0" departPos="5.10" departSpeed="0.00" departDelay="2.57" arrival="40.00" arrivalLane="29_4way_17to4way_12_0" arrivalPos="85.60" arrivalSpeed="14.23" duration="18.00" routeLength="175.13" waitingTime="0.00" waitingCount="0" stopTime="0.00" timeLoss="5.38" rerouteNo="0" devices="tripinfo_68" vType="DEFAULT_VEHTYPE" speedFactor="1.09" vaporized=""/>
    <tripinfo id="40" depart="12.00" departLane="1_3way_2to3way_1_0" departPos="5.10" departSpeed="0.00" departDelay="0.57" arrival="42.00" arrivalLane="5_3way_5to3way_10_0" arrivalPos="85.60" arrivalSpeed="14.27" duration="30.00" routeLength="377.30" waitingTime="0.00" waitingCount="0" stopTime="0.00" timeLoss="4.82" rerouteNo="0" devices="tripinfo_40" vType="DEFAULT_VEHTYPE" speedFactor="1.08" vaporized=""/>
    <tripinfo id="28" depart="8.00" departLane="14_3way_3to3way_2_0" departPos="5.10" departSpeed="0.00" departDelay="0.00" arrival="43.00" arrivalLane="27_4way_6to4way_11_0" arrivalPos="85.60" arrivalSpeed="8.85" duration="35.00" routeLength="375.13" waitingTime="0.00" waitingCount="0" stopTime="0.00" timeLoss="7.55" rerouteNo="0" devices="tripinfo_28" vType="DEFAULT_VEHTYPE" speedFactor="1.03" vaporized=""/>
    <tripinfo id="70" depart="23.00" departLane="34_4way_18to4way_17_0" departPos="5.10" departSpeed="0.00" departDelay="3.00" arrival="44.00" arrivalLane="33_4way_17to4way_16_0" arrivalPos="85.60" arrivalSpeed="10.00" duration="21.00" routeLength="180.50" waitingTime="0.00" waitingCount="0" stopTime="0.00" timeLoss="3.21" rerouteNo="0" devices="tripinfo_70" vType="DEFAULT_VEHTYPE" speedFactor="0.75" vaporized=""/>
    <tripinfo id="116" depart="34.00" departLane="22_3way_3to4way_8_0" departPos="5.10" departSpeed="0.00" departDelay="0.86" arrival="44.00" arrivalLane="22_3way_3to4way_8_0" arrivalPos="85.60" arrivalSpeed="13.56" duration="10.00" routeLength="80.50" waitingTime="0.00" waitingCount="0" stopTime="0.00" timeLoss="3.28" rerouteNo="0" devices="tripinfo_116" vType="DEFAULT_VEHTYPE" speedFactor="0.99" vaporized=""/>
    <tripinfo id="61" depart="18.00" departLane="11_3way_15to4way_16_0" departPos="5.10" departSpeed="0.00" departDelay="0.57" arrival="45.00" arrivalLane="27_4way_11to4way_6_0" arrivalPos="85.60" arrivalSpeed="13.58" duration="27.00" routeLength="275.13" waitingTime="0.00" waitingCount="0" stopTime="0.00" timeLoss="6.23" rerouteNo="0" devices="tripinfo_61" vType="DEFAULT_VEHTYPE" speedFactor="1.01" vaporized=""/>
    <tripinfo id="124" depart="36.00" departLane="23_4way_6to3way_5_0" departPos="5.10" departSpeed="0.00" departDelay="0.57" arrival="45.00" arrivalLane="23_4way_6to3way_5_0" arrivalPos="85.60" arrivalSpeed="14.72" duration="9.00" routeLength="80.50" waitingTime="0.00" waitingCount="0" stopTime="0.00" timeLoss="3.34" rerouteNo="0" devices="tripinfo_124" vType="DEFAULT_VEHTYPE" speedFactor="1.11" vaporized=""/>
    <tripinfo id="47" depart="15.00" departLane="13_3way_19to4way_18_0" departPos="5.10" departSpeed="0.00" departDelay="1.57" arrival="46.00" arrivalLane="33_4way_17to4way_16_0" arrivalPos="85.60" arrivalSpeed="11.20" duration="31.00" routeLength="280.50" waitingTime="0.00" waitingCount="0" stopTime="0.00" timeLoss="7.80" rerouteNo="0" devices="tripinfo_47" vType="DEFAULT_VEHTYPE" speedFactor="0.90" vaporized=""/>
    <tripinfo id="122" depart="37.00" departLane="30_4way_7to4way_12_0" departPos="5.10" departSpeed="0.00" departDelay="2.14" arrival="46.00" arrivalLane="30_4way_7to4way_12_0" arrivalPos="85.60" arrivalSpeed="16.64" duration="9.00" routeLength="80.50" waitingTime="0.00" waitingCount="0" stopTime="0.00" timeLoss="3.83" rerouteNo="0" devices="tripinfo_122" vType="DEFAULT_VEHTYPE" speedFactor="1.20" vaporized=""/>
    <tripinfo id="101" depart="29.00" departLane="9_3way_14to4way_13_0" departPos="5.10" departSpeed="0.00" departDelay="0.14" arrival="48.00" arrivalLane="31_4way_13to4way_18_0" arrivalPos="85.60" arrivalSpeed="13.33" duration="19.00" routeLength="175.13" waitingTime="0.00" waitingCount="0" stopTime="0.00" timeLoss="5.41" rerouteNo="0" devices="tripinfo_101" vType="DEFAULT_VEHTYPE" speedFactor="1.03" vaporized=""/>
    <tripinfo id="137" depart="40.00" departLane="3_3way_1to4way_6_0" departPos="5.10" departSpeed="0.00" departDelay="0.86" arrival="49.00" arrivalLane="3_3way_1to4way_6_0" arrivalPos="85.60" arrivalSpeed="15.18" duration="9.00" routeLength="80.50" waitingTime="0.00" waitingCount="0" stopTime="0.00" timeLoss="3.14" rerouteNo="0" devices="tripinfo_137" vType="DEFAULT_VEHTYPE" speedFactor="1.14" vaporized=""/>
    <tripinfo id="134" depart="40.00" departLane="28_4way_12to4way_13_0" departPos="5.10" departSpeed="0.00" departDelay="1.72" arrival="50.00" arrivalLane="28_4way_12to4way_13_0" arrivalPos="85.60" arrivalSpeed="12.84" duration="10.00" routeLength="80.50" waitingTime="0.00" waitingCount="0" stopTime="0.00" timeLoss="3.56" rerouteNo="0" devices="tripinfo_134" vType="DEFAULT_VEHTYPE" speedFactor="1.00" vaporized=""/>
    <tripinfo id="140" depart="41.00" departLane="6_4way_11to3way_10_0" departPos="5.10" departSpeed="0.00" departDelay="1.00" arrival="51.00" arrivalLane="6_4way_11to3way_10_0" arrivalPos="85.60" arrivalSpeed="12.51" duration="10.00" routeLength="80.50" waitingTime="0.00" waitingCount="0" stopTime="0.00" timeLoss="3.01" rerouteNo="0" devices="tripinfo_140" vType="DEFAULT_VEHTYPE" speedFactor="0.93" vaporized=""/>
    <tripinfo id="110" depart="34.00" departLane="30_4way_7to4way_12_0" departPos="5.10" departSpeed="0.00" departDelay="2.57" arrival="52.00" arrivalLane="28_4way_12to4way_13_0" arrivalPos="85.60" arrivalSpeed="13.35" duration="18.00" routeLength="175.13" waitingTime="0.00" waitingCount="0" stopTime="0.00" timeLoss="5.29" rerouteNo="0" devices="tripinfo_110" vType="DEFAULT_VEHTYPE" speedFactor="1.05" vaporized=""/>
    <tripinfo id="144" depart="42.00" departLane="22_4way_8to3way_3_0" departPos="5.10" departSpeed="0.00" departDelay="0.86" arrival="52.00" arrivalLane="22_4way_8to3way_3_0" arrivalPos="85.60" arrivalSpeed="14.05" duration="10.00" routeLength="80.50" waitingTime="0.00" waitingCount="0" stopTime="0.00" timeLoss="3.66" rerouteNo="0" devices="tripinfo_144" vType="DEFAULT_VEHTYPE" speedFactor="1.07" vaporized=""/>
    <tripinfo id="112" depart="32.00" departLane="2_3way_1to3way_5_0" departPos="5.10" departSpeed="0.00" departDelay="0.00" arrival="57.00" arrivalLane="5_3way_5to3way_10_0" arrivalPos="85.60" arrivalSpeed="12.46" duration="25.00" routeLength="277.30" waitingTime="0.00" waitingCount="0" stopTime="0.00" timeLoss="3.82" rerouteNo="0" devices="tripinfo_112" vType="DEFAULT_VEHTYPE" speedFactor="0.95" vaporized=""/>
    <tripinfo id="145" depart="47.00" departLane="28_4way_12to4way_13_0" departPos="5.10" departSpeed="0.00" departDelay="5.57" arrival="57.00" arrivalLane="28_4way_12to4way_13_0" arrivalPos="85.60" arrivalSpeed="13.14" duration="10.00" routeLength="80.50" waitingTime="0.00" waitingCount="0" stopTime="0.00" timeLoss="3.06" rerouteNo="0" devices="tripinfo_145" vType="DEFAULT_VEHTYPE" speedFactor="0.96" vaporized=""/>
    <tripinfo id="136" depart="39.00" departLane="19_4way_17to3way_22_0" departPos="5.10" departSpeed="0.00" departDelay="0.14" arrival="58.00" arrivalLane="18_3way_22to3way_23_0" arrivalPos="85.60" arrivalSpeed="13.80" duration="19.00" routeLength="175.13" waitingTime="0.00" waitingCount="0" stopTime="0.00" timeLoss="5.29" rerouteNo="0" devices="tripinfo_136" vType="DEFAULT_VEHTYPE" speedFactor="1.01" vaporized=""/>
    <tripinfo id="39" depart="12.00" departLane="13_3way_19to4way_18_0" departPos="5.10" departSpeed="0.00" departDelay="0.86" arrival="59.00" arrivalLane="5_3way_10to3way_5_0" arrivalPos="85.60" arrivalSpeed="14.21" duration="47.00" routeLength="580.29" waitingTime="0.00" waitingCount="0" stopTime="0.00" timeLoss="6.03" rerouteNo="0" devices="tripinfo_39" vType="DEFAULT_VEHTYPE" speedFactor="1.05" vaporized=""/>
    <tripinfo id="81" depart="25.00" departLane="1_3way_2to3way_1_0" departPos="5.10" departSpeed="0.00" departDelay="1.86" arrival="59.00" arrivalLane="5_3way_5to3way_10_0" arrivalPos="85.60" arrivalSpeed="13.55" duration="34.00" routeLength="377.30" waitingTime="0.00" waitingCount="0" stopTime="0.00" timeLoss="7.53" rerouteNo="0" devices="tripinfo_81" vType="DEFAULT_VEHTYPE" speedFactor="1.05" vaporized=""/>
    <tripinfo id="108" depart="31.00" departLane="13_4way_18to3way_19_0" departPos="5.10" departSpeed="0.00" departDelay="0.14" arrival="61.00" arrivalLane="8_3way_14to3way_9_0" arrivalPos="85.60" arrivalSpeed="11.91" duration="30.00" routeLength="275.13" waitingTime="0.00" waitingCount="0" stopTime="0.00" timeLoss="5.62" rerouteNo="0" devices="tripinfo_108" vType="DEFAULT_VEHTYPE" speedFactor="0.88" vaporized=""/>
    <tripinfo id="172" depart="51.00" departLane="24_4way_8to3way_9_0" departPos="5.10" departSpeed="0.00" departDelay="1.86" arrival="61.00" arrivalLane="24_4way_8to3way_9_0" arrivalPos="85.60" arrivalSpeed="12.08" duration="10.00" routeLength="80.50" waitingTime="0.00" waitingCount="0" stopTime="0.00" timeLoss="3.14" rerouteNo="0" devices="tripinfo_172" vType="DEFAULT_VEHTYPE" speedFactor="0.92" vaporized=""/>
    <tripinfo id="164" depart="47.00" departLane="15_3way_2to4way_7_0" departPos="5.10" departSpeed="0.00" departDelay="0.14" arrival="63.00" arrivalLane="30_4way_7to4way_12_0" arrivalPos="85.60" arrivalSpeed="14.93" duration="16.00" routeLength="180.50" waitingTime="0.00" waitingCount="0" stopTime="0.00" timeLoss="3.77" rerouteNo="0" devices="tripinfo_164" vType="DEFAULT_VEHTYPE" speedFactor="1.11" vaporized=""/>
    <tripinfo id="195" depart="56.00" departLane="3_3way_1to4way_6_0" departPos="5.10" departSpeed="0.00" departDelay="0.29" arrival="66.00" arrivalLane="3_3way_1to4way_6_0" arrivalPos="85.60" arrivalSpeed="11.42" duration="10.00" routeLength="80.50" waitingTime="0.00" waitingCount="0" stopTime="0.00" timeLoss="2.97" rerouteNo="0" devices="tripinfo_195" vType="DEFAULT_VEHTYPE" speedFactor="0.90" vaporized=""/>
    <tripinfo id="173" depart="50.00" departLane="4_3way_15to3way_10_0" departPos="5.10" departSpeed="0.00" departDelay="0.57" arrival="68.00" arrivalLane="5_3way_10to3way_5_0" arrivalPos="85.60" arrivalSpeed="11.46" duration="18.00" routeLength="180.50" waitingTime="0.00" waitingCount="0" stopTime="0.00" timeLoss="3.25" rerouteNo="0" devices="tripinfo_173" vType="DEFAULT_VEHTYPE" speedFactor="0.90" vaporized=""/>
    <tripinfo id="17" depart="5.00" departLane="33_4way_16to4way_17_0" departPos="5.10" departSpeed="0.00" departDelay="0.14" arrival="70.00" arrivalLane="31_4way_18to4way_13_0" arrivalPos="85.60" arrivalSpeed="5.04" duration="65.00" routeLength="275.13" waitingTime="35.00" waitingCount="1" stopTime="0.00" timeLoss="45.33" rerouteNo="0" devices="tripinfo_17" vType="DEFAULT_VEHTYPE" speedFactor="1.04" vaporized=""/>
    <tripinfo id="30" depart="11.00" departLane="14_3way_3to3way_2_0" departPos="5.10" departSpeed="0.00" departDelay="2.43" arrival="70.00" arrivalLane="29_4way_12to4way_17_0" arrivalPos="85.60" arrivalSpeed="6.20" duration="59.00" routeLength="375.13" waitingTime="21.00" waitingCount="1" stopTime="0.00" timeLoss="32.52" rerouteNo="0" devices="tripinfo_30" vType="DEFAULT_VEHTYPE" speedFactor="1.05" vaporized=""/>
    <tripinfo id="34" depart="10.00" departLane="3_3way_1to4way_6_0" departPos="5.10" departSpeed="0.00" departDelay="0.29" arrival="70.00" arrivalLane="35_4way_6to4way_7_0" arrivalPos="85.60" arrivalSpeed="5.47" duration="60.00" routeLength="175.13" waitingTime="35.00" waitingCount="1" stopTime="0.00" timeLoss="45.68" rerouteNo="0" devices="tripinfo_34" vType="DEFAULT_VEHTYPE" speedFactor="0.96" vaporized=""/>
    <tripinfo id="105" depart="36.00" departLane="29_4way_17to4way_12_0" departPos="5.10" departSpeed="0.00" departDelay="6.00" arrival="70.00" arrivalLane="35_4way_7to4way_6_0" arrivalPos="85.60" arrivalSpeed="5.35" duration="34.00" routeLength="275.13" waitingTime="1.00" waitingCount="1" stopTime="0.00" timeLoss="12.09" rerouteNo="0" devices="tripinfo_105" vType="DEFAULT_VEHTYPE" speedFactor="0.95" vaporized=""/>
    <tripinfo id="123" depart="36.00" departLane="15_3way_2to4way_7_0" departPos="5.10" departSpeed="0.00" departDelay="0.86" arrival="70.00" arrivalLane="36_4way_7to4way_8_0" arrivalPos="85.60" arrivalSpeed="6.21" duration="34.00" routeLength="175.13" waitingTime="10.00" waitingCount="1" stopTime="0.00" timeLoss="21.38" rerouteNo="0" devices="tripinfo_123" vType="DEFAULT_VEHTYPE" speedFactor="1.06" vaporized=""/>
    <tripinfo id="148" depart="43.00" departLane="14_3way_2to3way_3_0" departPos="5.10" departSpeed="0.00" departDelay="0.72" arrival="70.00" arrivalLane="14_3way_2to3way_3_0" arrivalPos="85.60" arrivalSpeed="4.56" duration="27.00" routeLength="80.50" waitingTime="14.00" waitingCount="1" stopTime="0.00" timeLoss="21.52" rerouteNo="0" devices="tripinfo_148" vType="DEFAULT_VEHTYPE" speedFactor="1.07" vaporized=""/>
    <tripinfo id="157" depart="45.00" departLane="18_3way_22to3way_23_0" departPos="5.10" departSpeed="0.00" departDelay="0.14" arrival="70.00" arrivalLane="12_3way_23to3way_19_0" arrivalPos="182.40" arrivalSpeed="12.72" duration="25.00" routeLength="277.30" waitingTime="0.00" waitingCount="0" stopTime="0.00" timeLoss="3.46" rerouteNo="0" devices="tripinfo_157" vType="DEFAULT_VEHTYPE" speedFactor="0.94" vaporized=""/>
    <tripinfo id="198" depart="60.00" departLane="7_3way_19to3way_14_0" departPos="5.10" departSpeed="0.00" departDelay="3.43" arrival="70.00" arrivalLane="7_3way_19to3way_14_0" arrivalPos="85.60" arrivalSpeed="11.53" duration="10.00" routeLength="80.50" waitingTime="0.00" waitingCount="0" stopTime="0.00" timeLoss="2.89" rerouteNo="0" devices="tripinfo_198" vType="DEFAULT_VEHTYPE" speedFactor="0.87" vaporized=""/>
    <tripinfo id="210" depart="61.00" departLane="19_4way_17to3way_22_0" departPos="5.10" departSpeed="0.00" departDelay="1.00" arrival="70.00" arrivalLane="19_4way_17to3way_22_0" arrivalPos="85.60" arrivalSpeed="16.00" duration="9.00" routeLength="80.50" waitingTime="0.00" waitingCount="0" stopTime="0.00" timeLoss="3.80" rerouteNo="0" devices="tripinfo_210" vType="DEFAULT_VEHTYPE" speedFactor="1.20" vaporized=""/>
    <tripinfo id="168" depart="48.00" departLane="4_3way_10to3way_15_0" departPos="5.10" departSpeed="0.00" departDelay="0.00" arrival="71.00" arrivalLane="4_3way_10to3way_15_0" arrivalPos="85.60" arrivalSpeed="6.04" duration="23.00" routeLength="80.50" waitingTime="9.00" waitingCount="1" stopTime="0.00" timeLoss="17.46" rerouteNo="0" devices="tripinfo_168" vType="DEFAULT_VEHTYPE" speedFactor="1.10" vaporized=""/>
    <tripinfo id="213" depart="61.00" departLane="34_4way_18to4way_17_0" departPos="5.10" departSpeed="0.00" departDelay="0.15" arrival="71.00" arrivalLane="34_4way_18to4way_17_0" arrivalPos="85.60" arrivalSpeed="11.44" duration="10.00" routeLength="80.50" waitingTime="0.00" waitingCount="0" stopTime="0.00" timeLoss="3.32" rerouteNo="0" devices="tripinfo_213" vType="DEFAULT_VEHTYPE" speedFactor="0.91" vaporized=""/>
    <tripinfo id="215" depart="62.00" departLane="20_4way_18to3way_23_0" departPos="5.10" departSpeed="0.00" departDelay="0.57" arrival="71.00" arrivalLane="20_4way_18to3way_23_0" arrivalPos="85.60" arrivalSpeed="13.56" duration="9.00" routeLength="80.50" waitingTime="0.00" waitingCount="0" stopTime="0.00" timeLoss="2.80" rerouteNo="0" devices="tripinfo_215" vType="DEFAULT_VEHTYPE" speedFactor="1.00" vaporized=""/>
    <tripinfo id="153" depart="49.00" departLane="36_4way_7to4way_8_0" departPos="5.10" departSpeed="0.00" departDelay="5.29" arrival="72.00" arrivalLane="36_4way_7to4way_8_0" arrivalPos="85.60" arrivalSpeed="7.28" duration="23.00" routeLength="80.50" waitingTime="8.00" waitingCount="1" stopTime="0.00" timeLoss="16.45" rerouteNo="0" devices="tripinfo_153" vType="DEFAULT_VEHTYPE" speedFactor="0.90" vaporized=""/>
    <tripinfo id="199" depart="57.00" departLane="1_3way_1to3way_2_0" departPos="5.10" departSpeed="0.00" departDelay="0.15" arrival="72.00" arrivalLane="14_3way_2to3way_3_0" arrivalPos="85.60" arrivalSpeed="16.51" duration="15.00" routeLength="180.50" waitingTime="0.00" waitingCount="0" stopTime="0.00" timeLoss="4.07" rerouteNo="0" devices="tripinfo_199" vType="DEFAULT_VEHTYPE" speedFactor="1.20" vaporized=""/>
    <tripinfo id="214" depart="63.00" departLane="31_4way_13to4way_18_0" departPos="5.10" departSpeed="0.00" departDelay="1.86" arrival="72.00" arrivalLane="31_4way_13to4way_18_0" arrivalPos="85.60" arrivalSpeed="12.91" duration="9.00" routeLength="80.50" waitingTime="0.00" waitingCount="0" stopTime="0.00" timeLoss="2.83" rerouteNo="0" devices="tripinfo_214" vType="DEFAULT_VEHTYPE" speedFactor="1.00" vaporized=""/>
    <tripinfo id="31" depart="14.00" departLane="14_3way_3to3way_2_0" departPos="5.10" departSpeed="0.00" departDelay="5.14" arrival="73.00" arrivalLane="29_4way_12to4way_17_0" arrivalPos="85.60" arrivalSpeed="9.25" duration="59.00" routeLength="375.13" waitingTime="20.00" waitingCount="1" stopTime="0.00" timeLoss="33.74" rerouteNo="0" devices="tripinfo_31" vType="DEFAULT_VEHTYPE" speedFactor="1.11" vaporized=""/>
    <tripinfo id="83" depart="24.00" departLane="9_3way_14to4way_13_0" departPos="5.10" departSpeed="0.00" departDelay="0.29" arrival="73.00" arrivalLane="28_4way_13to4way_12_0" arrivalPos="85.60" arrivalSpeed="8.84" duration="49.00" routeLength="180.50" waitingTime="25.00" waitingCount="1" stopTime="0.00" timeLoss="34.34" rerouteNo="0" devices="tripinfo_83" vType="DEFAULT_VEHTYPE" speedFactor="0.93" vaporized=""/>
    <tripinfo id="95" depart="28.00" departLane="4_3way_15to3way_10_0" departPos="5.10" departSpeed="0.00" departDelay="0.86" arrival="73.00" arrivalLane="1_3way_1to3way_2_0" arrivalPos="85.60" arrivalSpeed="11.04" duration="45.00" routeLength="483.70" waitingTime="0.00" waitingCount="0" stopTime="0.00" timeLoss="4.86" rerouteNo="0" devices="tripinfo_95" vType="DEFAULT_VEHTYPE" speedFactor="0.88" vaporized=""/>
    <tripinfo id="111" depart="32.00" departLane="7_3way_14to3way_19_0" departPos="5.10" departSpeed="0.00" departDelay="0.29" arrival="73.00" arrivalLane="7_3way_14to3way_19_0" arrivalPos="85.60" arrivalSpeed="9.10" duration="41.00" routeLength="80.50" waitingTime="25.00" waitingCount="1" stopTime="0.00" timeLoss="33.40" rerouteNo="0" devices="tripinfo_111" vType="DEFAULT_VEHTYPE" speedFactor="0.84" vaporized=""/>
    <tripinfo id="209" depart="63.00" departLane="17_3way_21to4way_16_0" departPos="5.10" departSpeed="0.00" departDelay="3.29" arrival="74.00" arrivalLane="17_3way_21to4way_16_0" arrivalPos="85.60" arrivalSpeed="10.54" duration="11.00" routeLength="80.50" waitingTime="0.00" waitingCount="0" stopTime="0.00" timeLoss="4.64" rerouteNo="0" devices="tripinfo_209" vType="DEFAULT_VEHTYPE" speedFactor="0.95" vaporized=""/>