<?xml version="1.0" encoding="UTF-8"?>

<!-- generated on 2023-07-28 14:11:53 by Eclipse SUMO sumo Version 1.12.0
<configuration xmlns:xsi="http://www.w3.org/2001/XMLSchema-instance" xsi:noNamespaceSchemaLocation="http://sumo.dlr.de/xsd/sumoConfiguration.xsd">

    <input>
        <net-file value="../../data_generation/sq.net.xml"/>
        <route-files value="../../data_generation/sq.rou.xml"/>
    </input>

    <output>
        <tripinfo-output value="tripinfo.xml"/>
        <statistic-output value="statistic.xml"/>
    </output>

    <time>
        <begin value="0"/>
        <end value="3600"/>
    </time>

    <processing>
        <time-to-teleport value="-1"/>
    </processing>

    <traci_server>
        <remote-port value="34629"/>
    </traci_server>

    <random_number>
        <seed value="1395"/>
    </random_number>

    <gui_only>
        <gui-settings-file value="../../data_generation/view_HY_0402.xml"/>
    </gui_only>

</configuration>
-->

<tripinfos xmlns:xsi="http://www.w3.org/2001/XMLSchema-instance" xsi:noNamespaceSchemaLocation="http://sumo.dlr.de/xsd/tripinfo_file.xsd">
    <tripinfo id="7" depart="2.00" departLane="34_3way_7to3way_6_0" departPos="5.10" departSpeed="0.00" departDelay="0.44" arrival="12.00" arrivalLane="34_3way_7to3way_6_0" arrivalPos="85.60" arrivalSpeed="13.16" duration="10.00" routeLength="80.50" waitingTime="0.00" waitingCount="0" stopTime="0.00" timeLoss="3.25" rerouteNo="0" devices="tripinfo_7" vType="DEFAULT_VEHTYPE" speedFactor="0.95" vaporized=""/>
    <tripinfo id="9" depart="2.00" departLane="104_4way_42to4way_41_0" departPos="5.10" departSpeed="0.00" departDelay="0.00" arrival="12.00" arrivalLane="104_4way_42to4way_41_0" arrivalPos="85.60" arrivalSpeed="12.23" duration="10.00" routeLength="80.50" waitingTime="0.00" waitingCount="0" stopTime="0.00" timeLoss="2.68" rerouteNo="0" devices="tripinfo_9" vType="DEFAULT_VEHTYPE" speedFactor="0.91" vaporized=""/>
    <tripinfo id="38" depart="9.00" departLane="21_4way_37to3way_36_0" departPos="5.10" departSpeed="0.00" departDelay="0.56" arrival="19.00" arrivalLane="21_4way_37to3way_36_0" arrivalPos="85.60" arrivalSpeed="13.47" duration="10.00" routeLength="80.50" waitingTime="0.00" waitingCount="0" stopTime="0.00" timeLoss="3.31" rerouteNo="0" devices="tripinfo_38" vType="DEFAULT_VEHTYPE" speedFactor="1.00" vaporized=""/>
    <tripinfo id="10" depart="3.00" departLane="130_4way_59to4way_60_0" departPos="5.10" departSpeed="0.00" departDelay="0.78" arrival="20.00" arrivalLane="132_4way_60to4way_61_0" arrivalPos="85.60" arrivalSpeed="14.11" duration="17.00" routeLength="180.50" waitingTime="0.00" waitingCount="0" stopTime="0.00" timeLoss="3.75" rerouteNo="0" devices="tripinfo_10" vType="DEFAULT_VEHTYPE" speedFactor="1.04" vaporized=""/>
    <tripinfo id="51" depart="12.00" departLane="88_4way_30to4way_39_0" departPos="5.10" departSpeed="0.00" departDelay="0.67" arrival="23.00" arrivalLane="88_4way_30to4way_39_0" arrivalPos="85.60" arrivalSpeed="9.57" duration="11.00" routeLength="80.50" waitingTime="0.00" waitingCount="0" stopTime="0.00" timeLoss="2.33" rerouteNo="0" devices="tripinfo_51" vType="DEFAULT_VEHTYPE" speedFactor="0.74" vaporized=""/>
    <tripinfo id="16" depart="4.00" departLane="62_4way_21to4way_12_0" departPos="5.10" departSpeed="0.00" departDelay="0.44" arrival="25.00" arrivalLane="59_4way_12to4way_11_0" arrivalPos="85.60" arrivalSpeed="12.25" duration="21.00" routeLength="175.13" waitingTime="0.00" waitingCount="0" stopTime="0.00" timeLoss="5.56" rerouteNo="0" devices="tripinfo_16" vType="DEFAULT_VEHTYPE" speedFactor="0.90" vaporized=""/>
    <tripinfo id="71" depart="16.00" departLane="6_4way_16to3way_17_0" departPos="5.10" departSpeed="0.00" departDelay="0.22" arrival="25.00" arrivalLane="6_4way_16to3way_17_0" arrivalPos="85.60" arrivalSpeed="14.52" duration="9.00" routeLength="80.50" waitingTime="0.00" waitingCount="0" stopTime="0.00" timeLoss="3.55" rerouteNo="0" devices="tripinfo_71" vType="DEFAULT_VEHTYPE" speedFactor="1.13" vaporized=""/>
    <tripinfo id="60" depart="14.00" departLane="111_4way_48to4way_47_0" departPos="5.10" departSpeed="0.00" departDelay="0.67" arrival="30.00" arrivalLane="109_4way_47to4way_46_0" arrivalPos="85.60" arrivalSpeed="15.55" duration="16.00" routeLength="180.50" waitingTime="0.00" waitingCount="0" stopTime="0.00" timeLoss="3.76" rerouteNo="0" devices="tripinfo_60" vType="DEFAULT_VEHTYPE" speedFactor="1.12" vaporized=""/>
    <tripinfo id="75" depart="17.00" departLane="93_4way_33to4way_34_0" departPos="5.10" departSpeed="0.00" departDelay="0.33" arrival="33.00" arrivalLane="19_4way_34to3way_35_0" arrivalPos="85.60" arrivalSpeed="14.70" duration="16.00" routeLength="180.50" waitingTime="0.00" waitingCount="0" stopTime="0.00" timeLoss="3.77" rerouteNo="0" devices="tripinfo_75" vType="DEFAULT_VEHTYPE" speedFactor="1.09" vaporized=""/>
    <tripinfo id="81" depart="18.00" departLane="2_3way_9to3way_1_0" departPos="5.10" departSpeed="0.00" departDelay="0.00" arrival="34.00" arrivalLane="2_3way_9to3way_1_0" arrivalPos="188.80" arrivalSpeed="13.85" duration="16.00" routeLength="183.70" waitingTime="0.00" waitingCount="0" stopTime="0.00" timeLoss="3.32" rerouteNo="0" devices="tripinfo_81" vType="DEFAULT_VEHTYPE" speedFactor="1.05" vaporized=""/>
    <tripinfo id="116" depart="26.00" departLane="57_4way_11to4way_10_0" departPos="5.10" departSpeed="0.00" departDelay="0.22" arrival="35.00" arrivalLane="57_4way_11to4way_10_0" arrivalPos="85.60" arrivalSpeed="12.73" duration="9.00" routeLength="80.50" waitingTime="0.00" waitingCount="0" stopTime="0.00" timeLoss="2.70" rerouteNo="0" devices="tripinfo_116" vType="DEFAULT_VEHTYPE" speedFactor="0.99" vaporized=""/>
    <tripinfo id="124" depart="28.00" departLane="79_4way_23to4way_32_0" departPos="5.10" departSpeed="0.00" departDelay="0.45" arrival="37.00" arrivalLane="79_4way_23to4way_32_0" arrivalPos="85.60" arrivalSpeed="14.50" duration="9.00" routeLength="80.50" waitingTime="0.00" waitingCount="0" stopTime="0.00" timeLoss="3.55" rerouteNo="0" devices="tripinfo_124" vType="DEFAULT_VEHTYPE" speedFactor="1.11" vaporized=""/>
    <tripinfo id="22" depart="5.00" departLane="56_4way_10to3way_9_0" departPos="5.10" departSpeed="0.00" departDelay="0.11" arrival="39.00" arrivalLane="14_3way_27to3way_36_0" arrivalPos="85.60" arrivalSpeed="12.92" duration="34.00" routeLength="375.13" waitingTime="0.00" waitingCount="0" stopTime="0.00" timeLoss="5.87" rerouteNo="0" devices="tripinfo_22" vType="DEFAULT_VEHTYPE" speedFactor="1.00" vaporized=""/>
    <tripinfo id="18" depart="4.00" departLane="102_4way_40to4way_41_0" departPos="5.10" departSpeed="0.00" departDelay="0.00" arrival="40.00" arrivalLane="95_4way_43to4way_34_0" arrivalPos="85.60" arrivalSpeed="13.07" duration="36.00" routeLength="375.13" waitingTime="0.00" waitingCount="0" stopTime="0.00" timeLoss="5.96" rerouteNo="0" devices="tripinfo_18" vType="DEFAULT_VEHTYPE" speedFactor="0.96" vaporized=""/>
    <tripinfo id="96" depart="22.00" departLane="45_3way_74to3way_75_0" departPos="5.10" departSpeed="0.00" departDelay="0.67" arrival="40.00" arrivalLane="47_3way_75to3way_76_0" arrivalPos="85.60" arrivalSpeed="13.17" duration="18.00" routeLength="180.50" waitingTime="0.00" waitingCount="0" stopTime="0.00" timeLoss="3.65" rerouteNo="0" devices="tripinfo_96" vType="DEFAULT_VEHTYPE" speedFactor="0.95" vaporized=""/>
    <tripinfo id="147" depart="33.00" departLane="108_4way_43to4way_52_0" departPos="5.10" departSpeed="0.00" departDelay="0.34" arrival="43.00" arrivalLane="108_4way_43to4way_52_0" arrivalPos="85.60" arrivalSpeed="12.56" duration="10.00" routeLength="80.50" waitingTime="0.00" waitingCount="0" stopTime="0.00" timeLoss="3.45" rerouteNo="0" devices="tripinfo_147" vType="DEFAULT_VEHTYPE" speedFactor="0.97" vaporized=""/>
    <tripinfo id="160" depart="36.00" departLane="103_4way_49to4way_40_0" departPos="5.10" departSpeed="0.00" departDelay="0.45" arrival="46.00" arrivalLane="103_4way_49to4way_40_0" arrivalPos="85.60" arrivalSpeed="12.11" duration="10.00" routeLength="80.50" waitingTime="0.00" waitingCount="0" stopTime="0.00" timeLoss="2.58" rerouteNo="0" devices="tripinfo_160" vType="DEFAULT_VEHTYPE" speedFactor="0.88" vaporized=""/>
    <tripinfo id="171" depart="38.00" departLane="17_3way_3to4way_12_0" departPos="5.10" departSpeed="0.00" departDelay="0.00" arrival="57.00" arrivalLane="61_4way_12to4way_13_0" arrivalPos="85.60" arrivalSpeed="13.86" duration="19.00" routeLength="175.13" waitingTime="0.00" waitingCount="0" stopTime="0.00" timeLoss="5.45" rerouteNo="0" devices="tripinfo_171" vType="DEFAULT_VEHTYPE" speedFactor="1.04" vaporized=""/>
    <tripinfo id="212" depart="48.00" departLane="109_4way_46to4way_47_0" departPos="5.10" departSpeed="0.00" departDelay="0.89" arrival="57.00" arrivalLane="109_4way_46to4way_47_0" arrivalPos="85.60" arrivalSpeed="13.24" duration="9.00" routeLength="80.50" waitingTime="0.00" waitingCount="0" stopTime="0.00" timeLoss="2.89" rerouteNo="0" devices="tripinfo_212" vType="DEFAULT_VEHTYPE" speedFactor="1.00" vaporized=""/>
    <tripinfo id="19" depart="5.00" departLane="33_4way_55to3way_54_0" departPos="5.10" departSpeed="0.00" departDelay="0.78" arrival="60.00" arrivalLane="8_3way_18to3way_9_0" arrivalPos="85.60" arrivalSpeed="12.33" duration="55.00" routeLength="580.29" waitingTime="0.00" waitingCount="0" stopTime="0.00" timeLoss="6.34" rerouteNo="0" devices="tripinfo_19" vType="DEFAULT_VEHTYPE" speedFactor="0.89" vaporized=""/>
    <tripinfo id="112" depart="25.00" departLane="66_4way_14to4way_23_0" departPos="5.10" departSpeed="0.00" departDelay="0.11" arrival="61.00" arrivalLane="93_4way_33to4way_34_0" arrivalPos="85.60" arrivalSpeed="13.00" duration="36.00" routeLength="375.13" waitingTime="0.00" waitingCount="0" stopTime="0.00" timeLoss="6.26" rerouteNo="0" devices="tripinfo_112" vType="DEFAULT_VEHTYPE" speedFactor="0.95" vaporized=""/>
    <tripinfo id="252" depart="56.00" departLane="126_4way_58to4way_57_0" departPos="5.10" departSpeed="0.00" departDelay="0.01" arrival="66.00" arrivalLane="126_4way_58to4way_57_0" arrivalPos="85.60" arrivalSpeed="12.43" duration="10.00" routeLength="80.50" waitingTime="0.00" waitingCount="0" stopTime="0.00" timeLoss="3.19" rerouteNo="0" devices="tripinfo_252" vType="DEFAULT_VEHTYPE" speedFactor="0.98" vaporized=""/>
    <tripinfo id="257" depart="58.00" departLane="3_4way_10to3way_1_0" departPos="5.10" departSpeed="0.00" departDelay="0.89" arrival="68.00" arrivalLane="3_4way_10to3way_1_0" arrivalPos="85.60" arrivalSpeed="11.30" duration="10.00" routeLength="80.50" waitingTime="0.00" waitingCount="0" stopTime="0.00" timeLoss="2.86" rerouteNo="0" devices="tripinfo_257" vType="DEFAULT_VEHTYPE" speedFactor="0.83" vaporized=""/>
    <tripinfo id="25" depart="6.00" departLane="36_3way_62to3way_71_0" departPos="5.10" departSpeed="0.00" departDelay="0.44" arrival="70.00" arrivalLane="51_3way_78to3way_77_0" arrivalPos="85.60" arrivalSpeed="5.00" duration="64.00" routeLength="483.70" waitingTime="17.00" waitingCount="1" stopTime="0.00" timeLoss="27.20" rerouteNo="0" devices="tripinfo_25" vType="DEFAULT_VEHTYPE" speedFactor="0.95" vaporized=""/>
    <tripinfo id="66" depart="15.00" departLane="74_4way_22to4way_21_0" departPos="5.10" departSpeed="0.00" departDelay="0.33" arrival="70.00" arrivalLane="75_4way_21to4way_30_0" arrivalPos="85.60" arrivalSpeed="4.80" duration="55.00" routeLength="175.13" waitingTime="29.00" waitingCount="1" stopTime="0.00" timeLoss="39.38" rerouteNo="0" devices="tripinfo_66" vType="DEFAULT_VEHTYPE" speedFactor="0.86" vaporized=""/>
    <tripinfo id="205" depart="46.00" departLane="134_4way_70to4way_61_0" departPos="5.10" departSpeed="0.00" departDelay="0.45" arrival="70.00" arrivalLane="134_4way_70to4way_61_0" arrivalPos="85.60" arrivalSpeed="6.27" duration="24.00" routeLength="80.50" waitingTime="9.00" waitingCount="1" stopTime="0.00" timeLoss="17.20" rerouteNo="0" devices="tripinfo_205" vType="DEFAULT_VEHTYPE" speedFactor="0.90" vaporized=""/>
    <tripinfo id="266" depart="60.00" departLane="101_4way_39to4way_48_0" departPos="5.10" departSpeed="0.00" departDelay="0.89" arrival="70.00" arrivalLane="101_4way_39to4way_48_0" arrivalPos="85.60" arrivalSpeed="13.11" duration="10.00" routeLength="80.50" waitingTime="0.00" waitingCount="0" stopTime="0.00" timeLoss="3.41" rerouteNo="0" devices="tripinfo_266" vType="DEFAULT_VEHTYPE" speedFactor="0.97" vaporized=""/>
    <tripinfo id="14" depart="4.00" departLane="97_4way_37to4way_46_0" departPos="5.10" departSpeed="0.00" departDelay="0.89" arrival="73.00" arrivalLane="122_4way_55to4way_56_0" arrivalPos="85.60" arrivalSpeed="8.28" duration="69.00" routeLength="275.13" waitingTime="37.00" waitingCount="1" stopTime="0.00" timeLoss="47.16" rerouteNo="0" devices="tripinfo_14" vType="DEFAULT_VEHTYPE" speedFactor="0.95" vaporized=""/>
    <tripinfo id="103" depart="23.00" departLane="51_3way_77to3way_78_0" departPos="5.10" departSpeed="0.00" departDelay="0.11" arrival="73.00" arrivalLane="55_3way_79to4way_70_0" arrivalPos="85.60" arrivalSpeed="8.06" duration="50.00" routeLength="275.13" waitingTime="18.00" waitingCount="1" stopTime="0.00" timeLoss="31.84" rerouteNo="0" devices="tripinfo_103" vType="DEFAULT_VEHTYPE" speedFactor="1.15" vaporized=""/>
    <tripinfo id="118" depart="27.00" departLane="19_3way_35to4way_34_0" departPos="5.10" departSpeed="0.00" departDelay="0.78" arrival="73.00" arrivalLane="94_4way_33to4way_42_0" arrivalPos="85.60" arrivalSpeed="7.43" duration="46.00" routeLength="275.13" waitingTime="15.00" waitingCount="1" stopTime="0.00" timeLoss="26.25" rerouteNo="0" devices="tripinfo_118" vType="DEFAULT_VEHTYPE" speedFactor="1.05" vaporized=""/>
    <tripinfo id="184" depart="41.00" departLane="106_4way_43to4way_42_0" departPos="5.10" departSpeed="0.00" departDelay="0.11" arrival="75.00" arrivalLane="118_4way_50to4way_59_0" arrivalPos="85.60" arrivalSpeed="13.94" duration="34.00" routeLength="375.13" waitingTime="0.00" waitingCount="0" stopTime="0.00" timeLoss="6.58" rerouteNo="0" devices="tripinfo_184" vType="DEFAULT_VEHTYPE" speedFactor="1.02" vaporized=""/>
    <tripinfo id="202" depart="48.00" departLane="45_3way_74to3way_75_0" departPos="5.10" departSpeed="0.00" departDelay="3.12" arrival="75.00" arrivalLane="47_3way_75to3way_76_0" arrivalPos="85.60" arrivalSpeed="8.31" duration="27.00" routeLength="180.50" waitingTime="2.00" waitingCount="1" stopTime="0.00" timeLoss="12.25" rerouteNo="0" devices="tripinfo_202" vType="DEFAULT_VEHTYPE" speedFactor="0.90" vaporized=""/>
    <tripinfo id="207" depart="46.00" departLane="85_4way_29to4way_30_0" departPos="5.10" departSpeed="0.00" departDelay="0.00" arrival="75.00" arrivalLane="64_4way_22to4way_13_0" arrivalPos="85.60" arrivalSpeed="16.96" duration="29.00" routeLength="375.13" waitingTime="0.00" waitingCount="0" stopTime="0.00" timeLoss="6.68" rerouteNo="0" devices="tripinfo_207" vType="DEFAULT_VEHTYPE" speedFactor="1.24" vaporized=""/>
    <tripinfo id="65" depart="15.00" departLane="88_4way_39to4way_30_0" departPos="5.10" departSpeed="0.00" departDelay="0.56" arrival="76.00" arrivalLane="75_4way_30to4way_21_0" arrivalPos="85.60" arrivalSpeed="15.99" duration="61.00" routeLength="180.50" waitingTime="39.00" waitingCount="1" stopTime="0.00" timeLoss="50.11" rerouteNo="0" devices="tripinfo_65" vType="DEFAULT_VEHTYPE" speedFactor="1.20" vaporized=""/>
    <tripinfo id="111" depart="25.00" departLane="52_3way_77to4way_68_0" departPos="5.10" departSpeed="0.00" departDelay="0.34" arrival="76.00" arrivalLane="103_4way_49to4way_40_0" arrivalPos="85.60" arrivalSpeed="10.90" duration="51.00" routeLength="474.93" waitingTime="0.00" waitingCount="0" stopTime="0.00" timeLoss="8.12" rerouteNo="0" devices="tripinfo_111" vType="DEFAULT_VEHTYPE" speedFactor="0.84" vaporized=""/>
    <tripinfo id="35" depart="8.00" departLane="23_3way_4to4way_13_0" departPos="5.10" departSpeed="0.00" departDelay="0.22" arrival="77.00" arrivalLane="63_4way_13to4way_14_0" arrivalPos="85.60" arrivalSpeed="12.70" duration="69.00" routeLength="175.13" waitingTime="48.00" waitingCount="1" stopTime="0.00" timeLoss="54.59" rerouteNo="0" devices="tripinfo_35" vType="DEFAULT_VEHTYPE" speedFactor="0.94" vaporized=""/>
    <tripinfo id="176" depart="40.00" departLane="54_4way_69to3way_78_0" departPos="5.10" departSpeed="0.00" departDelay="0.89" arrival="77.00" arrivalLane="53_3way_78to3way_79_0" arrivalPos="85.60" arrivalSpeed="13.35" duration="37.00" routeLength="175.13" waitingTime="14.00" waitingCount="1" stopTime="0.00" timeLoss="22.92" rerouteNo="0" devices="tripinfo_176" vType="DEFAULT_VEHTYPE" speedFactor="0.97" vaporized=""/>
    <tripinfo id="196" depart="44.00" departLane="19_4way_34to3way_35_0" departPos="5.10" departSpeed="0.00" departDelay="0.45" arrival="77.00" arrivalLane="4_3way_26to3way_17_0" arrivalPos="85.60" arrivalSpeed="13.57" duration="33.00" routeLength="275.13" waitingTime="0.00" waitingCount="0" stopTime="0.00" timeLoss="13.35" rerouteNo="0" devices="tripinfo_196" vType="DEFAULT_VEHTYPE" speedFactor="1.07" vaporized=""/>
    <tripinfo id="249" depart="56.00" departLane="44_4way_64to3way_73_0" departPos="5.10" departSpeed="0.00" departDelay="0.67" arrival="77.00" arrivalLane="43_3way_73to3way_74_0" arrivalPos="85.60" arrivalSpeed="13.86" duration="21.00" routeLength="175.13" waitingTime="0.00" waitingCount="0" stopTime="0.00" timeLoss="8.37" rerouteNo="0" devices="tripinfo_249" vType="DEFAULT_VEHTYPE" speedFactor="1.12" vaporized=""/>
    <tripinfo id="288" depart="64.00" departLane="22_3way_5to3way_4_0" departPos="5.10" departSpeed="0.00" departDelay="0.01" arrival="77.00" arrivalLane="22_3way_5to3way_4_0" arrivalPos="85.60" arrivalSpeed="8.09" duration="13.00" routeLength="80.50" waitingTime="0.00" waitingCount="0" stopTime="0.00" timeLoss="5.54" rerouteNo="0" devices="tripinfo_288" vType="DEFAULT_VEHTYPE" speedFactor="0.82" vaporized=""/>
    <tripinfo id="31" depart="9.00" departLane="6_3way_17to4way_16_0" departPos="5.10" departSpeed="0.00" departDelay="2.11" arrival="78.00" arrivalLane="67_4way_16to4way_15_0" arrivalPos="85.60" arrivalSpeed="14.30" duration="69.00" routeLength="180.50" waitingTime="47.00" waitingCount="1" stopTime="0.00" timeLoss="57.22" rerouteNo="0" devices="tripinfo_31" vType="DEFAULT_VEHTYPE" speedFactor="1.11" vaporized=""/>
    <tripinfo id="70" depart="16.00" departLane="129_4way_58to4way_67_0" departPos="5.10" departSpeed="0.00" departDelay="0.45" arrival="79.00" arrivalLane="138_4way_67to4way_68_0" arrivalPos="85.60" arrivalSpeed="9.79" duration="63.00" routeLength="175.13" waitingTime="39.00" waitingCount="1" stopTime="0.00" timeLoss="44.75" rerouteNo="0" devices="tripinfo_70" vType="DEFAULT_VEHTYPE" speedFactor="0.75" vaporized=""/>
    <tripinfo id="311" depart="70.00" departLane="122_4way_56to4way_55_0" departPos="5.10" departSpeed="0.00" departDelay="0.90" arrival="79.00" arrivalLane="122_4way_56to4way_55_0" arrivalPos="85.60" arrivalSpeed="14.35" duration="9.00" routeLength="80.50" waitingTime="0.00" waitingCount="0" stopTime="0.00" timeLoss="3.00" rerouteNo="0" devices="tripinfo_311" vType="DEFAULT_VEHTYPE" speedFactor="1.04" vaporized=""/>
    <tripinfo id="313" depart="70.00" departLane="12_3way_26to3way_35_0" departPos="5.10" departSpeed="0.00" departDelay="0.45" arrival="80.00" arrivalLane="12_3way_26to3way_35_0" arrivalPos="85.60" arrivalSpeed="11.31" duration="10.00" routeLength="80.50" waitingTime="0.00" waitingCount="0" stopTime="0.00" timeLoss="2.92" rerouteNo="0" devices="tripinfo_313" vType="DEFAULT_VEHTYPE" speedFactor="0.90" vaporized=""/>
    <tripinfo id="136" depart="31.00" departLane="130_4way_59to4way_60_0" departPos="5.10" departSpeed="0.00" departDelay="0.78" arrival="81.00" arrivalLane="95_4way_43to4way_34_0" arrivalPos="85.60" arrivalSpeed="11.42" duration="50.00" routeLength="475.13" waitingTime="1.00" waitingCount="1" stopTime="0.00" timeLoss="14.90" rerouteNo="0" devices="tripinfo_136" vType="DEFAULT_VEHTYPE" speedFactor="1.01" vaporized=""/>
    <tripinfo id="271" depart="61.00" departLane="122_4way_56to4way_55_0" departPos="5.10" departSpeed="0.00" departDelay="0.78" arrival="81.00" arrivalLane="123_4way_55to4way_64_0" arrivalPos="85.60" arrivalSpeed="12.47" duration="20.00" routeLength="175.13" waitingTime="0.00" waitingCount="0" stopTime="0.00" timeLoss="4.49" rerouteNo="0" devices="tripinfo_271" vType="DEFAULT_VEHTYPE" speedFactor="0.90" vaporized=""/>
    <tripinfo id="219" depart="49.00" departLane="140_4way_69to4way_70_0" departPos="5.10" departSpeed="0.00" departDelay="0.34" arrival="83.00" arrivalLane="121_4way_61to4way_52_0" arrivalPos="85.60" arrivalSpeed="14.24" duration="34.00" routeLength="275.13" waitingTime="1.00" waitingCount="1" stopTime="0.00" timeLoss="13.84" rerouteNo="0" devices="tripinfo_219" vType="DEFAULT_VEHTYPE" speedFactor="1.03" vaporized=""/>
    <tripinfo id="268" depart="60.00" departLane="131_4way_68to4way_59_0" departPos="5.10" departSpeed="0.00" departDelay="0.45" arrival="83.00" arrivalLane="115_4way_50to4way_49_0" arrivalPos="85.60" arrivalSpeed="15.67" duration="23.00" routeLength="275.13" waitingTime="0.00" waitingCount="0" stopTime="0.00" timeLoss="6.26" rerouteNo="0" devices="tripinfo_268" vType="DEFAULT_VEHTYPE" speedFactor="1.22" vaporized=""/>
    <tripinfo id="1" depart="1.00" departLane="136_4way_65to4way_66_0" departPos="5.10" departSpeed="0.00" departDelay="0.78" arrival="84.00" arrivalLane="114_4way_57to4way_48_0" arrivalPos="85.60" arrivalSpeed="13.76" duration="83.00" routeLength="275.13" waitingTime="55.00" waitingCount="1" stopTime="0.00" timeLoss="63.16" rerouteNo="0" devices="tripinfo_1" vType="DEFAULT_VEHTYPE" speedFactor="1.04" vaporized=""/>
    <tripinfo id="110" depart="25.00" departLane="108_4way_43to4way_52_0" departPos="5.10" departSpeed="0.00" departDelay="0.56" arrival="84.00" arrivalLane="55_4way_70to3way_79_0" arrivalPos="85.60" arrivalSpeed="13.76" duration="59.00" routeLength="380.50" waitingTime="23.00" waitingCount="1" stopTime="0.00" timeLoss="32.54" rerouteNo="0" devices="tripinfo_110" vType="DEFAULT_VEHTYPE" speedFactor="1.05" vaporized=""/>
    <tripinfo id="315" depart="74.00" departLane="93_4way_34to4way_33_0" departPos="5.10" departSpeed="0.00" departDelay="4.01" arrival="84.00" arrivalLane="93_4way_34to4way_33_0" arrivalPos="85.60" arrivalSpeed="11.78" duration="10.00" routeLength="80.50" waitingTime="0.00" waitingCount="0" stopTime="0.00" timeLoss="3.33" rerouteNo="0" devices="tripinfo_315" vType="DEFAULT_VEHTYPE" speedFactor="0.93" vaporized=""/>
    <tripinfo id="243" depart="54.00" departLane="83_4way_28to4way_29_0" departPos="5.10" departSpeed="0.00" departDelay="0.00" arrival="85.00" arrivalLane="60_4way_20to4way_11_0" arrivalPos="85.60" arrivalSpeed="11.84" duration="31.00" routeLength="275.13" waitingTime="0.00" waitingCount="0" stopTime="0.00" timeLoss="9.35" rerouteNo="0" devices="tripinfo_243" vType="DEFAULT_VEHTYPE" speedFactor="0.94" vaporized=""/>
    <tripinfo id="95" depart="22.00" departLane="85_4way_29to4way_30_0" departPos="5.10" departSpeed="0.00" departDelay="0.89" arrival="86.00" arrivalLane="66_4way_23to4way_14_0" arrivalPos="85.60" arrivalSpeed="12.06" duration="64.00" routeLength="475.13" waitingTime="16.00" waitingCount="1" stopTime="0.00" timeLoss="24.53" rerouteNo="0" devices="tripinfo_95" vType="DEFAULT_VEHTYPE" speedFactor="0.88" vaporized=""/>
    <tripinfo id="13" depart="3.00" departLane="95_4way_34to4way_43_0" departPos="5.10" departSpeed="0.00" departDelay="0.11" arrival="87.00" arrivalLane="31_4way_52to3way_53_0" arrivalPos="85.60" arrivalSpeed="13.21" duration="84.00" routeLength="275.13" waitingTime="51.00" waitingCount="1" stopTime="0.00" timeLoss="62.54" rerouteNo="0" devices="tripinfo_13" vType="DEFAULT_VEHTYPE" speedFactor="0.98" vaporized=""/>
    <tripinfo id="113" depart="26.00" departLane="49_3way_77to3way_76_0" departPos="5.10" departSpeed="0.00" departDelay="0.89" arrival="87.00" arrivalLane="45_3way_75to3way_74_0" arrivalPos="85.60" arrivalSpeed="14.91" duration="61.00" routeLength="280.50" waitingTime="29.00" waitingCount="1" stopTime="0.00" timeLoss="42.31" rerouteNo="0" devices="tripinfo_113" vType="DEFAULT_VEHTYPE" speedFactor="1.10" vaporized=""/>
    <tripinfo id="126" depart="28.00" departLane="88_4way_39to4way_30_0" departPos="5.10" departSpeed="0.00" departDelay="0.00" arrival="87.00" arrivalLane="62_4way_21to4way_12_0" arrivalPos="85.60" arrivalSpeed="13.03" duration="59.00" routeLength="280.50" waitingTime="27.00" waitingCount="1" stopTime="0.00" timeLoss="38.02" rerouteNo="0" devices="tripinfo_126" vType="DEFAULT_VEHTYPE" speedFactor="1.01" vaporized=""/>
    <tripinfo id="263" depart="59.00" departLane="103_4way_49to4way_40_0" departPos="5.10" departSpeed="0.00" departDelay="0.56" arrival="87.00" arrivalLane="87_4way_31to4way_30_0" arrivalPos="85.60" arrivalSpeed="12.78" duration="28.00" routeLength="275.13" waitingTime="0.00" waitingCount="0" stopTime="0.00" timeLoss="6.14" rerouteNo="0" devices="tripinfo_263" vType="DEFAULT_VEHTYPE" speedFactor="0.99" vaporized=""/>
    <tripinfo id="100" depart="23.00" departLane="28_3way_6to3way_5_0" departPos="5.10" departSpeed="0.00" departDelay="0.78" arrival="88.00" arrivalLane="10_3way_3to3way_2_0" arrivalPos="85.60" arrivalSpeed="15.09" duration="65.00" routeLength="380.50" waitingTime="29.00" waitingCount="1" stopTime="0.00" timeLoss="41.54" rerouteNo="0" devices="tripinfo_100" vType="DEFAULT_VEHTYPE" speedFactor="1.20" vaporized=""/>
    <tripinfo id="352" depart="79.00" departLane="122_4way_56to4way_55_0" departPos="5.10" departSpeed="0.00" departDelay="0.79" arrival="88.00" arrivalLane="122_4way_56to4way_55_0" arrivalPos="85.60" arrivalSpeed="14.54" duration="9.00" routeLength="80.50" waitingTime="0.00" waitingCount="0" stopTime="0.00" timeLoss="3.12" rerouteNo="0" devices="tripinfo_352" vType="DEFAULT_VEHTYPE" speedFactor="1.10" vaporized=""/>
    <tripinfo id="167" depart="38.00" departLane="16_3way_4to3way_3_0" departPos="5.10" departSpeed="0.00" departDelay="0.89" arrival="89.00" arrivalLane="11_3way_2to4way_11_0" arrivalPos="85.60" arrivalSpeed="11.15" duration="51.00" routeLength="275.13" waitingTime="16.00" waitingCount="1" stopTime="0.00" timeLoss="26.17" rerouteNo="0" devices="tripinfo_167" vType="DEFAULT_VEHTYPE" speedFactor="0.85" vaporized=""/>
    <tripinfo id="32" depart="12.00" departLane="6_3way_17to4way_16_0" departPos="5.10" departSpeed="0.00" departDelay="4.89" arrival="90.00" arrivalLane="68_4way_15to4way_24_0" arrivalPos="85.60" arrivalSpeed="13.34" duration="78.00" routeLength="275.13" waitingTime="45.00" waitingCount="1" stopTime="0.00" timeLoss="56.91" rerouteNo="0" devices="tripinfo_32" vType="DEFAULT_VEHTYPE" speedFactor="1.00" vaporized=""/>
    <tripinfo id="318" depart="73.00" departLane="77_4way_22to4way_31_0" departPos="5.10" departSpeed="0.00" departDelay="2.34" arrival="90.00" arrivalLane="90_4way_31to4way_40_0" arrivalPos="85.60" arrivalSpeed="13.69" duration="17.00" routeLength="180.50" waitingTime="0.00" waitingCount="0" stopTime="0.00" timeLoss="3.42" rerouteNo="0" devices="tripinfo_318" vType="DEFAULT_VEHTYPE" speedFactor="1.01" vaporized=""/>
    <tripinfo id="28" depart="7.00" departLane="12_3way_26to3way_35_0" departPos="5.10" departSpeed="0.00" departDelay="0.78" arrival="92.00" arrivalLane="30_3way_53to3way_62_0" arrivalPos="85.60" arrivalSpeed="13.03" duration="85.00" routeLength="380.50" waitingTime="48.00" waitingCount="1" stopTime="0.00" timeLoss="57.86" rerouteNo="0" devices="tripinfo_28" vType="DEFAULT_VEHTYPE" speedFactor="1.03" vaporized=""/>
    <tripinfo id="372" depart="83.00" departLane="3_3way_1to4way_10_0" departPos="5.10" departSpeed="0.00" departDelay="0.34" arrival="92.00" arrivalLane="3_3way_1to4way_10_0" arrivalPos="85.60" arrivalSpeed="13.23" duration="9.00" routeLength="80.50" waitingTime="0.00" waitingCount="0" stopTime="0.00" timeLoss="2.63" rerouteNo="0" devices="tripinfo_372" vType="DEFAULT_VEHTYPE" speedFactor="0.96" vaporized=""/>
    <tripinfo id="0" depart="0.00" departLane="129_4way_67to4way_58_0" departPos="5.10" departSpeed="0.00" departDelay="0.00" arrival="93.00" arrivalLane="61_4way_13to4way_12_0" arrivalPos="85.60" arrivalSpeed="13.89" duration="93.00" routeLength="675.13" waitingTime="33.00" waitingCount="1" stopTime="0.00" timeLoss="44.02" rerouteNo="0" devices="tripinfo_0" vType="DEFAULT_VEHTYPE" speedFactor="1.00" vaporized=""/>
    <tripinfo id="327" depart="87.00" departLane="84_4way_28to4way_37_0" departPos="5.10" departSpeed="0.00" departDelay="14.34" arrival="96.00" arrivalLane="84_4way_28to4way_37_0" arrivalPos="85.60" arrivalSpeed="13.17" duration="9.00" routeLength="80.50" waitingTime="0.00" waitingCount="0" stopTime="0.00" timeLoss="2.87" rerouteNo="0" devices="tripinfo_327" vType="DEFAULT_VEHTYPE" speedFactor="0.95" vaporized=""/>
    <tripinfo id="89" depart="20.00" departLane="48_3way_75to4way_66_0" departPos="5.10" departSpeed="0.00" departDelay="0.22" arrival="98.00" arrivalLane="88_4way_39to4way_30_0" arrivalPos="85.60" arrivalSpeed="12.58" duration="78.00" routeLength="480.50" waitingTime="29.00" waitingCount="1" stopTime="0.00" timeLoss="40.83" rerouteNo="0" devices="tripinfo_89" vType="DEFAULT_VEHTYPE" speedFactor="0.93" vaporized=""/>
    <tripinfo id="330" depart="75.00" departLane="110_4way_55to4way_46_0" departPos="5.10" departSpeed="0.00" departDelay="1.67" arrival="98.00" arrivalLane="84_4way_37to4way_28_0" arrivalPos="85.60" arrivalSpeed="14.10" duration="23.00" routeLength="280.50" waitingTime="0.00" waitingCount="0" stopTime="0.00" timeLoss="3.88" rerouteNo="0" devices="tripinfo_330" vType="DEFAULT_VEHTYPE" speedFactor="1.08" vaporized=""/>