<?xml version="1.0" encoding="UTF-8"?>

<!-- generated on 2023-07-28 02:11:40 by Eclipse SUMO sumo Version 1.12.0
<configuration xmlns:xsi="http://www.w3.org/2001/XMLSchema-instance" xsi:noNamespaceSchemaLocation="http://sumo.dlr.de/xsd/sumoConfiguration.xsd">

    <input>
        <net-file value="../../data_generation/sq.net.xml"/>
        <route-files value="../../data_generation/sq.rou.xml"/>
    </input>

    <output>
        <tripinfo-output value="tripinfo.xml"/>
        <statistic-output value="statistic.xml"/>
    </output>

    <time>
        <begin value="0"/>
        <end value="3600"/>
    </time>

    <processing>
        <time-to-teleport value="-1"/>
    </processing>

    <traci_server>
        <remote-port value="47093"/>
    </traci_server>

    <random_number>
        <seed value="1395"/>
    </random_number>

    <gui_only>
        <gui-settings-file value="../../data_generation/view_HY_0402.xml"/>
    </gui_only>

</configuration>
-->

<tripinfos xmlns:xsi="http://www.w3.org/2001/XMLSchema-instance" xsi:noNamespaceSchemaLocation="http://sumo.dlr.de/xsd/tripinfo_file.xsd">
    <tripinfo id="24" depart="5.00" departLane="10_3way_17to3way_23_0" departPos="5.10" departSpeed="0.00" departDelay="0.00" arrival="14.00" arrivalLane="10_3way_17to3way_23_0" arrivalPos="85.60" arrivalSpeed="13.26" duration="9.00" routeLength="80.50" waitingTime="0.00" waitingCount="0" stopTime="0.00" timeLoss="2.85" rerouteNo="0" devices="tripinfo_24" vType="DEFAULT_VEHTYPE" speedFactor="0.97" vaporized=""/>
    <tripinfo id="21" depart="5.00" departLane="24_3way_31to3way_32_0" departPos="5.10" departSpeed="0.00" departDelay="0.63" arrival="15.00" arrivalLane="24_3way_31to3way_32_0" arrivalPos="85.60" arrivalSpeed="11.25" duration="10.00" routeLength="80.50" waitingTime="0.00" waitingCount="0" stopTime="0.00" timeLoss="2.57" rerouteNo="0" devices="tripinfo_21" vType="DEFAULT_VEHTYPE" speedFactor="0.82" vaporized=""/>
    <tripinfo id="0" depart="0.00" departLane="39_4way_20to4way_14_0" departPos="5.10" departSpeed="0.00" departDelay="0.00" arrival="18.00" arrivalLane="35_4way_14to4way_13_0" arrivalPos="85.60" arrivalSpeed="13.68" duration="18.00" routeLength="175.13" waitingTime="0.00" waitingCount="0" stopTime="0.00" timeLoss="4.86" rerouteNo="0" devices="tripinfo_0" vType="DEFAULT_VEHTYPE" speedFactor="1.00" vaporized=""/>
    <tripinfo id="15" depart="4.00" departLane="13_4way_19to3way_18_0" departPos="5.10" departSpeed="0.00" departDelay="0.87" arrival="23.00" arrivalLane="7_3way_18to3way_12_0" arrivalPos="85.60" arrivalSpeed="13.39" duration="19.00" routeLength="180.29" waitingTime="0.00" waitingCount="0" stopTime="0.00" timeLoss="4.95" rerouteNo="0" devices="tripinfo_15" vType="DEFAULT_VEHTYPE" speedFactor="1.05" vaporized=""/>
    <tripinfo id="88" depart="19.00" departLane="36_4way_19to4way_13_0" departPos="5.10" departSpeed="0.00" departDelay="0.67" arrival="28.00" arrivalLane="36_4way_19to4way_13_0" arrivalPos="85.60" arrivalSpeed="13.60" duration="9.00" routeLength="80.50" waitingTime="0.00" waitingCount="0" stopTime="0.00" timeLoss="3.27" rerouteNo="0" devices="tripinfo_88" vType="DEFAULT_VEHTYPE" speedFactor="1.06" vaporized=""/>
    <tripinfo id="11" depart="3.00" departLane="56_4way_8to4way_9_0" departPos="5.10" departSpeed="0.00" departDelay="0.71" arrival="31.00" arrivalLane="22_3way_3to3way_4_0" arrivalPos="85.60" arrivalSpeed="12.81" duration="28.00" routeLength="274.92" waitingTime="0.00" waitingCount="0" stopTime="0.00" timeLoss="6.31" rerouteNo="0" devices="tripinfo_11" vType="DEFAULT_VEHTYPE" speedFactor="1.01" vaporized=""/>
    <tripinfo id="17" depart="4.00" departLane="39_4way_14to4way_20_0" departPos="5.10" departSpeed="0.00" departDelay="0.46" arrival="31.00" arrivalLane="49_4way_21to4way_22_0" arrivalPos="85.60" arrivalSpeed="13.63" duration="27.00" routeLength="275.13" waitingTime="0.00" waitingCount="0" stopTime="0.00" timeLoss="6.63" rerouteNo="0" devices="tripinfo_17" vType="DEFAULT_VEHTYPE" speedFactor="1.04" vaporized=""/>
    <tripinfo id="77" depart="21.00" departLane="54_4way_27to4way_28_0" departPos="5.10" departSpeed="0.00" departDelay="4.96" arrival="31.00" arrivalLane="54_4way_27to4way_28_0" arrivalPos="85.60" arrivalSpeed="12.68" duration="10.00" routeLength="80.50" waitingTime="0.00" waitingCount="0" stopTime="0.00" timeLoss="3.30" rerouteNo="0" devices="tripinfo_77" vType="DEFAULT_VEHTYPE" speedFactor="0.99" vaporized=""/>
    <tripinfo id="19" depart="4.00" departLane="15_3way_2to4way_8_0" departPos="5.10" departSpeed="0.00" departDelay="0.04" arrival="32.00" arrivalLane="39_4way_14to4way_20_0" arrivalPos="85.60" arrivalSpeed="11.22" duration="28.00" routeLength="280.50" waitingTime="0.00" waitingCount="0" stopTime="0.00" timeLoss="5.02" rerouteNo="0" devices="tripinfo_19" vType="DEFAULT_VEHTYPE" speedFactor="0.89" vaporized=""/>
    <tripinfo id="58" depart="13.00" departLane="19_4way_25to3way_24_0" departPos="5.10" departSpeed="0.00" departDelay="0.92" arrival="33.00" arrivalLane="12_3way_24to3way_18_0" arrivalPos="85.60" arrivalSpeed="12.33" duration="20.00" routeLength="180.29" waitingTime="0.00" waitingCount="0" stopTime="0.00" timeLoss="4.62" rerouteNo="0" devices="tripinfo_58" vType="DEFAULT_VEHTYPE" speedFactor="0.93" vaporized=""/>
    <tripinfo id="42" depart="9.00" departLane="39_4way_14to4way_20_0" departPos="5.10" departSpeed="0.00" departDelay="0.25" arrival="34.00" arrivalLane="27_4way_26to3way_32_0" arrivalPos="85.60" arrivalSpeed="13.63" duration="25.00" routeLength="280.50" waitingTime="0.00" waitingCount="0" stopTime="0.00" timeLoss="3.97" rerouteNo="0" devices="tripinfo_42" vType="DEFAULT_VEHTYPE" speedFactor="0.99" vaporized=""/>
    <tripinfo id="123" depart="26.00" departLane="36_4way_19to4way_13_0" departPos="5.10" departSpeed="0.00" departDelay="0.38" arrival="36.00" arrivalLane="36_4way_19to4way_13_0" arrivalPos="85.60" arrivalSpeed="14.39" duration="10.00" routeLength="80.50" waitingTime="0.00" waitingCount="0" stopTime="0.00" timeLoss="3.59" rerouteNo="0" devices="tripinfo_123" vType="DEFAULT_VEHTYPE" speedFactor="1.06" vaporized=""/>
    <tripinfo id="93" depart="20.00" departLane="20_3way_34to3way_29_0" departPos="5.10" departSpeed="0.00" departDelay="0.63" arrival="37.00" arrivalLane="20_3way_34to3way_29_0" arrivalPos="182.40" arrivalSpeed="13.36" duration="17.00" routeLength="177.30" waitingTime="0.00" waitingCount="0" stopTime="0.00" timeLoss="3.60" rerouteNo="0" devices="tripinfo_93" vType="DEFAULT_VEHTYPE" speedFactor="1.00" vaporized=""/>
    <tripinfo id="127" depart="28.00" departLane="38_4way_15to4way_14_0" departPos="5.10" departSpeed="0.00" departDelay="1.55" arrival="37.00" arrivalLane="38_4way_15to4way_14_0" arrivalPos="85.60" arrivalSpeed="13.01" duration="9.00" routeLength="80.50" waitingTime="0.00" waitingCount="0" stopTime="0.00" timeLoss="2.88" rerouteNo="0" devices="tripinfo_127" vType="DEFAULT_VEHTYPE" speedFactor="1.00" vaporized=""/>
    <tripinfo id="97" depart="22.00" departLane="14_3way_3to3way_2_0" departPos="5.10" departSpeed="0.00" departDelay="1.79" arrival="38.00" arrivalLane="1_3way_2to3way_1_0" arrivalPos="85.60" arrivalSpeed="13.78" duration="16.00" routeLength="180.50" waitingTime="0.00" waitingCount="0" stopTime="0.00" timeLoss="3.46" rerouteNo="0" devices="tripinfo_97" vType="DEFAULT_VEHTYPE" speedFactor="1.06" vaporized=""/>
    <tripinfo id="135" depart="29.00" departLane="29_4way_27to3way_33_0" departPos="5.10" departSpeed="0.00" departDelay="0.88" arrival="39.00" arrivalLane="29_4way_27to3way_33_0" arrivalPos="85.60" arrivalSpeed="14.94" duration="10.00" routeLength="80.50" waitingTime="0.00" waitingCount="0" stopTime="0.00" timeLoss="3.70" rerouteNo="0" devices="tripinfo_135" vType="DEFAULT_VEHTYPE" speedFactor="1.09" vaporized=""/>
    <tripinfo id="98" depart="21.00" departLane="9_3way_12to4way_13_0" departPos="5.10" departSpeed="0.00" departDelay="0.59" arrival="40.00" arrivalLane="35_4way_13to4way_14_0" arrivalPos="85.60" arrivalSpeed="11.54" duration="19.00" routeLength="180.50" waitingTime="0.00" waitingCount="0" stopTime="0.00" timeLoss="3.53" rerouteNo="0" devices="tripinfo_98" vType="DEFAULT_VEHTYPE" speedFactor="0.88" vaporized=""/>
    <tripinfo id="84" depart="18.00" departLane="15_3way_2to4way_8_0" departPos="5.10" departSpeed="0.00" departDelay="0.50" arrival="41.00" arrivalLane="39_4way_14to4way_20_0" arrivalPos="85.60" arrivalSpeed="14.04" duration="23.00" routeLength="280.50" waitingTime="0.00" waitingCount="0" stopTime="0.00" timeLoss="3.79" rerouteNo="0" devices="tripinfo_84" vType="DEFAULT_VEHTYPE" speedFactor="1.06" vaporized=""/>
    <tripinfo id="34" depart="8.00" departLane="15_3way_2to4way_8_0" departPos="5.10" departSpeed="0.00" departDelay="0.92" arrival="42.00" arrivalLane="48_4way_20to4way_26_0" arrivalPos="85.60" arrivalSpeed="13.29" duration="34.00" routeLength="380.50" waitingTime="0.00" waitingCount="0" stopTime="0.00" timeLoss="4.82" rerouteNo="0" devices="tripinfo_34" vType="DEFAULT_VEHTYPE" speedFactor="0.96" vaporized=""/>
    <tripinfo id="153" depart="32.00" departLane="53_4way_26to4way_27_0" departPos="5.10" departSpeed="0.00" departDelay="0.13" arrival="42.00" arrivalLane="53_4way_26to4way_27_0" arrivalPos="85.60" arrivalSpeed="11.89" duration="10.00" routeLength="80.50" waitingTime="0.00" waitingCount="0" stopTime="0.00" timeLoss="2.82" rerouteNo="0" devices="tripinfo_153" vType="DEFAULT_VEHTYPE" speedFactor="0.90" vaporized=""/>
    <tripinfo id="67" depart="22.00" departLane="47_4way_20to4way_21_0" departPos="5.10" departSpeed="0.00" departDelay="8.04" arrival="43.00" arrivalLane="42_4way_21to4way_15_0" arrivalPos="85.60" arrivalSpeed="12.08" duration="21.00" routeLength="175.13" waitingTime="0.00" waitingCount="0" stopTime="0.00" timeLoss="5.32" rerouteNo="0" devices="tripinfo_67" vType="DEFAULT_VEHTYPE" speedFactor="0.88" vaporized=""/>
    <tripinfo id="157" depart="33.00" departLane="39_4way_20to4way_14_0" departPos="5.10" departSpeed="0.00" departDelay="0.30" arrival="43.00" arrivalLane="39_4way_20to4way_14_0" arrivalPos="85.60" arrivalSpeed="11.80" duration="10.00" routeLength="80.50" waitingTime="0.00" waitingCount="0" stopTime="0.00" timeLoss="3.16" rerouteNo="0" devices="tripinfo_157" vType="DEFAULT_VEHTYPE" speedFactor="0.94" vaporized=""/>
    <tripinfo id="168" depart="35.00" departLane="15_3way_2to4way_8_0" departPos="5.10" departSpeed="0.00" departDelay="0.01" arrival="44.00" arrivalLane="15_3way_2to4way_8_0" arrivalPos="85.60" arrivalSpeed="14.47" duration="9.00" routeLength="80.50" waitingTime="0.00" waitingCount="0" stopTime="0.00" timeLoss="3.28" rerouteNo="0" devices="tripinfo_168" vType="DEFAULT_VEHTYPE" speedFactor="1.10" vaporized=""/>
    <tripinfo id="103" depart="23.00" departLane="18_3way_24to3way_31_0" departPos="5.10" departSpeed="0.00" departDelay="1.54" arrival="46.00" arrivalLane="24_3way_31to3way_32_0" arrivalPos="85.60" arrivalSpeed="15.86" duration="23.00" routeLength="277.30" waitingTime="0.00" waitingCount="0" stopTime="0.00" timeLoss="4.76" rerouteNo="0" devices="tripinfo_103" vType="DEFAULT_VEHTYPE" speedFactor="1.15" vaporized=""/>
    <tripinfo id="170" depart="37.00" departLane="35_4way_14to4way_13_0" departPos="5.10" departSpeed="0.00" departDelay="1.59" arrival="46.00" arrivalLane="35_4way_14to4way_13_0" arrivalPos="85.60" arrivalSpeed="13.06" duration="9.00" routeLength="80.50" waitingTime="0.00" waitingCount="0" stopTime="0.00" timeLoss="2.83" rerouteNo="0" devices="tripinfo_170" vType="DEFAULT_VEHTYPE" speedFactor="1.00" vaporized=""/>
    <tripinfo id="57" depart="12.00" departLane="40_4way_8to4way_14_0" departPos="5.10" departSpeed="0.00" departDelay="0.13" arrival="47.00" arrivalLane="49_4way_21to4way_22_0" arrivalPos="85.60" arrivalSpeed="12.83" duration="35.00" routeLength="375.13" waitingTime="0.00" waitingCount="0" stopTime="0.00" timeLoss="5.74" rerouteNo="0" devices="tripinfo_57" vType="DEFAULT_VEHTYPE" speedFactor="0.97" vaporized=""/>
    <tripinfo id="179" depart="38.00" departLane="56_4way_8to4way_9_0" departPos="5.10" departSpeed="0.00" departDelay="0.71" arrival="47.00" arrivalLane="56_4way_8to4way_9_0" arrivalPos="85.60" arrivalSpeed="13.20" duration="9.00" routeLength="80.50" waitingTime="0.00" waitingCount="0" stopTime="0.00" timeLoss="2.97" rerouteNo="0" devices="tripinfo_179" vType="DEFAULT_VEHTYPE" speedFactor="0.97" vaporized=""/>
    <tripinfo id="102" depart="23.00" departLane="23_4way_9to3way_3_0" departPos="5.10" departSpeed="0.00" departDelay="1.75" arrival="48.00" arrivalLane="1_3way_2to3way_1_0" arrivalPos="85.60" arrivalSpeed="14.28" duration="25.00" routeLength="275.13" waitingTime="0.00" waitingCount="0" stopTime="0.00" timeLoss="5.39" rerouteNo="0" devices="tripinfo_102" vType="DEFAULT_VEHTYPE" speedFactor="1.05" vaporized=""/>
    <tripinfo id="139" depart="29.00" departLane="55_4way_8to4way_7_0" departPos="5.10" departSpeed="0.00" departDelay="0.05" arrival="48.00" arrivalLane="32_4way_7to3way_6_0" arrivalPos="85.60" arrivalSpeed="8.93" duration="19.00" routeLength="180.50" waitingTime="0.00" waitingCount="0" stopTime="0.00" timeLoss="6.82" rerouteNo="0" devices="tripinfo_139" vType="DEFAULT_VEHTYPE" speedFactor="1.09" vaporized=""/>
    <tripinfo id="141" depart="30.00" departLane="17_3way_23to4way_22_0" departPos="5.10" departSpeed="0.00" departDelay="0.63" arrival="48.00" arrivalLane="49_4way_22to4way_21_0" arrivalPos="85.60" arrivalSpeed="12.62" duration="18.00" routeLength="180.50" waitingTime="0.00" waitingCount="0" stopTime="0.00" timeLoss="4.14" rerouteNo="0" devices="tripinfo_141" vType="DEFAULT_VEHTYPE" speedFactor="0.99" vaporized=""/>
    <tripinfo id="174" depart="38.00" departLane="9_3way_12to4way_13_0" departPos="5.10" departSpeed="0.00" departDelay="1.76" arrival="48.00" arrivalLane="9_3way_12to4way_13_0" arrivalPos="85.60" arrivalSpeed="11.73" duration="10.00" routeLength="80.50" waitingTime="0.00" waitingCount="0" stopTime="0.00" timeLoss="3.13" rerouteNo="0" devices="tripinfo_174" vType="DEFAULT_VEHTYPE" speedFactor="0.94" vaporized=""/>
    <tripinfo id="150" depart="32.00" departLane="6_3way_11to4way_10_0" departPos="5.10" departSpeed="0.00" departDelay="0.75" arrival="50.00" arrivalLane="34_4way_10to4way_9_0" arrivalPos="85.60" arrivalSpeed="11.53" duration="18.00" routeLength="180.50" waitingTime="0.00" waitingCount="0" stopTime="0.00" timeLoss="3.67" rerouteNo="0" devices="tripinfo_150" vType="DEFAULT_VEHTYPE" speedFactor="0.92" vaporized=""/>
    <tripinfo id="132" depart="31.00" departLane="17_4way_22to3way_23_0" departPos="5.10" departSpeed="0.00" departDelay="3.50" arrival="52.00" arrivalLane="16_3way_23to3way_29_0" arrivalPos="85.60" arrivalSpeed="11.51" duration="21.00" routeLength="180.29" waitingTime="0.00" waitingCount="0" stopTime="0.00" timeLoss="4.71" rerouteNo="0" devices="tripinfo_132" vType="DEFAULT_VEHTYPE" speedFactor="0.86" vaporized=""/>
    <tripinfo id="178" depart="38.00" departLane="27_3way_32to4way_26_0" departPos="5.10" departSpeed="0.00" departDelay="0.92" arrival="54.00" arrivalLane="48_4way_26to4way_20_0" arrivalPos="85.60" arrivalSpeed="14.72" duration="16.00" routeLength="180.50" waitingTime="0.00" waitingCount="0" stopTime="0.00" timeLoss="3.38" rerouteNo="0" devices="tripinfo_178" vType="DEFAULT_VEHTYPE" speedFactor="1.07" vaporized=""/>
    <tripinfo id="199" depart="42.00" departLane="20_3way_34to3way_29_0" departPos="5.10" departSpeed="0.00" departDelay="0.55" arrival="57.00" arrivalLane="20_3way_34to3way_29_0" arrivalPos="182.40" arrivalSpeed="15.51" duration="15.00" routeLength="177.30" waitingTime="0.00" waitingCount="0" stopTime="0.00" timeLoss="3.74" rerouteNo="0" devices="tripinfo_199" vType="DEFAULT_VEHTYPE" speedFactor="1.20" vaporized=""/>
    <tripinfo id="182" depart="38.00" departLane="13_4way_19to3way_18_0" departPos="5.10" departSpeed="0.00" departDelay="0.09" arrival="58.00" arrivalLane="7_3way_18to3way_12_0" arrivalPos="85.60" arrivalSpeed="12.27" duration="20.00" routeLength="180.29" waitingTime="0.00" waitingCount="0" stopTime="0.00" timeLoss="4.00" rerouteNo="0" devices="tripinfo_182" vType="DEFAULT_VEHTYPE" speedFactor="0.90" vaporized=""/>
    <tripinfo id="161" depart="34.00" departLane="24_3way_31to3way_32_0" departPos="5.10" departSpeed="0.00" departDelay="0.46" arrival="60.00" arrivalLane="28_3way_33to3way_34_0" arrivalPos="85.60" arrivalSpeed="12.98" duration="26.00" routeLength="280.50" waitingTime="0.00" waitingCount="0" stopTime="0.00" timeLoss="4.13" rerouteNo="0" devices="tripinfo_161" vType="DEFAULT_VEHTYPE" speedFactor="0.95" vaporized=""/>
    <tripinfo id="160" depart="36.00" departLane="39_4way_20to4way_14_0" departPos="5.10" departSpeed="0.00" departDelay="2.67" arrival="63.00" arrivalLane="15_4way_8to3way_2_0" arrivalPos="85.60" arrivalSpeed="11.99" duration="27.00" routeLength="280.50" waitingTime="0.00" waitingCount="0" stopTime="0.00" timeLoss="3.98" rerouteNo="0" devices="tripinfo_160" vType="DEFAULT_VEHTYPE" speedFactor="0.88" vaporized=""/>
    <tripinfo id="173" depart="42.00" departLane="33_4way_10to4way_16_0" departPos="5.10" departSpeed="0.00" departDelay="5.96" arrival="63.00" arrivalLane="11_4way_16to3way_17_0" arrivalPos="85.60" arrivalSpeed="11.55" duration="21.00" routeLength="175.13" waitingTime="0.00" waitingCount="0" stopTime="0.00" timeLoss="5.63" rerouteNo="0" devices="tripinfo_173" vType="DEFAULT_VEHTYPE" speedFactor="0.90" vaporized=""/>
    <tripinfo id="259" depart="55.00" departLane="45_4way_20to4way_19_0" departPos="5.10" departSpeed="0.00" departDelay="1.05" arrival="64.00" arrivalLane="45_4way_20to4way_19_0" arrivalPos="85.60" arrivalSpeed="11.91" duration="9.00" routeLength="80.50" waitingTime="0.00" waitingCount="0" stopTime="0.00" timeLoss="2.56" rerouteNo="0" devices="tripinfo_259" vType="DEFAULT_VEHTYPE" speedFactor="0.94" vaporized=""/>
    <tripinfo id="262" depart="56.00" departLane="46_4way_19to4way_25_0" departPos="5.10" departSpeed="0.00" departDelay="1.42" arrival="65.00" arrivalLane="46_4way_19to4way_25_0" arrivalPos="85.60" arrivalSpeed="11.85" duration="9.00" routeLength="80.50" waitingTime="0.00" waitingCount="0" stopTime="0.00" timeLoss="2.78" rerouteNo="0" devices="tripinfo_262" vType="DEFAULT_VEHTYPE" speedFactor="0.93" vaporized=""/>
    <tripinfo id="158" depart="33.00" departLane="18_3way_24to3way_31_0" departPos="5.10" departSpeed="0.00" departDelay="0.09" arrival="66.00" arrivalLane="26_3way_32to3way_33_0" arrivalPos="85.60" arrivalSpeed="12.50" duration="33.00" routeLength="377.30" waitingTime="0.00" waitingCount="0" stopTime="0.00" timeLoss="4.71" rerouteNo="0" devices="tripinfo_158" vType="DEFAULT_VEHTYPE" speedFactor="0.96" vaporized=""/>
    <tripinfo id="272" depart="57.00" departLane="54_4way_27to4way_28_0" departPos="5.10" departSpeed="0.00" departDelay="0.34" arrival="68.00" arrivalLane="54_4way_27to4way_28_0" arrivalPos="85.60" arrivalSpeed="9.84" duration="11.00" routeLength="80.50" waitingTime="0.00" waitingCount="0" stopTime="0.00" timeLoss="2.55" rerouteNo="0" devices="tripinfo_272" vType="DEFAULT_VEHTYPE" speedFactor="0.72" vaporized=""/>
    <tripinfo id="76" depart="16.00" departLane="53_4way_27to4way_26_0" departPos="5.10" departSpeed="0.00" departDelay="0.17" arrival="70.00" arrivalLane="53_4way_27to4way_26_0" arrivalPos="85.60" arrivalSpeed="4.86" duration="54.00" routeLength="80.50" waitingTime="40.00" waitingCount="1" stopTime="0.00" timeLoss="47.52" rerouteNo="0" devices="tripinfo_76" vType="DEFAULT_VEHTYPE" speedFactor="0.90" vaporized=""/>
    <tripinfo id="145" depart="31.00" departLane="43_4way_9to4way_15_0" departPos="5.10" departSpeed="0.00" departDelay="0.80" arrival="70.00" arrivalLane="41_4way_15to4way_16_0" arrivalPos="85.60" arrivalSpeed="5.12" duration="39.00" routeLength="175.13" waitingTime="16.00" waitingCount="1" stopTime="0.00" timeLoss="24.70" rerouteNo="0" devices="tripinfo_145" vType="DEFAULT_VEHTYPE" speedFactor="0.96" vaporized=""/>
    <tripinfo id="241" depart="53.00" departLane="24_3way_31to3way_32_0" departPos="5.10" departSpeed="0.00" departDelay="2.80" arrival="70.00" arrivalLane="26_3way_32to3way_33_0" arrivalPos="85.60" arrivalSpeed="12.85" duration="17.00" routeLength="180.50" waitingTime="0.00" waitingCount="0" stopTime="0.00" timeLoss="3.22" rerouteNo="0" devices="tripinfo_241" vType="DEFAULT_VEHTYPE" speedFactor="0.98" vaporized=""/>
    <tripinfo id="248" depart="52.00" departLane="45_4way_20to4way_19_0" departPos="5.10" departSpeed="0.00" departDelay="0.34" arrival="70.00" arrivalLane="46_4way_19to4way_25_0" arrivalPos="85.60" arrivalSpeed="13.76" duration="18.00" routeLength="175.13" waitingTime="0.00" waitingCount="0" stopTime="0.00" timeLoss="5.24" rerouteNo="0" devices="tripinfo_248" vType="DEFAULT_VEHTYPE" speedFactor="1.06" vaporized=""/>
    <tripinfo id="100" depart="22.00" departLane="17_3way_23to4way_22_0" departPos="5.10" departSpeed="0.00" departDelay="1.17" arrival="71.00" arrivalLane="51_4way_22to4way_28_0" arrivalPos="85.60" arrivalSpeed="6.08" duration="49.00" routeLength="175.13" waitingTime="27.00" waitingCount="1" stopTime="0.00" timeLoss="37.67" rerouteNo="0" devices="tripinfo_100" vType="DEFAULT_VEHTYPE" speedFactor="1.20" vaporized=""/>
    <tripinfo id="91" depart="19.00" departLane="17_4way_22to3way_23_0" departPos="5.10" departSpeed="0.00" departDelay="0.04" arrival="72.00" arrivalLane="10_3way_23to3way_17_0" arrivalPos="85.60" arrivalSpeed="6.02" duration="53.00" routeLength="175.13" waitingTime="30.00" waitingCount="1" stopTime="0.00" timeLoss="40.41" rerouteNo="0" devices="tripinfo_91" vType="DEFAULT_VEHTYPE" speedFactor="1.04" vaporized=""/>
    <tripinfo id="203" depart="43.00" departLane="32_3way_6to4way_7_0" departPos="5.10" departSpeed="0.00" departDelay="0.71" arrival="72.00" arrivalLane="55_4way_7to4way_8_0" arrivalPos="85.60" arrivalSpeed="6.79" duration="29.00" routeLength="180.50" waitingTime="6.00" waitingCount="1" stopTime="0.00" timeLoss="15.14" rerouteNo="0" devices="tripinfo_203" vType="DEFAULT_VEHTYPE" speedFactor="0.95" vaporized=""/>
    <tripinfo id="55" depart="19.00" departLane="47_4way_20to4way_21_0" departPos="5.10" departSpeed="0.00" departDelay="7.54" arrival="73.00" arrivalLane="33_4way_16to4way_10_0" arrivalPos="85.60" arrivalSpeed="8.06" duration="54.00" routeLength="375.13" waitingTime="12.00" waitingCount="1" stopTime="0.00" timeLoss="24.29" rerouteNo="0" devices="tripinfo_55" vType="DEFAULT_VEHTYPE" speedFactor="0.94" vaporized=""/>
    <tripinfo id="111" depart="24.00" departLane="3_3way_1to4way_7_0" departPos="5.10" departSpeed="0.00" departDelay="0.88" arrival="73.00" arrivalLane="3_3way_1to4way_7_0" arrivalPos="85.60" arrivalSpeed="7.27" duration="49.00" routeLength="80.50" waitingTime="35.00" waitingCount="1" stopTime="0.00" timeLoss="41.79" rerouteNo="0" devices="tripinfo_111" vType="DEFAULT_VEHTYPE" speedFactor="0.84" vaporized=""/>
    <tripinfo id="107" depart="23.00" departLane="17_4way_22to3way_23_0" departPos="5.10" departSpeed="0.00" departDelay="0.71" arrival="74.00" arrivalLane="10_3way_23to3way_17_0" arrivalPos="85.60" arrivalSpeed="9.11" duration="51.00" routeLength="175.13" waitingTime="27.00" waitingCount="1" stopTime="0.00" timeLoss="38.44" rerouteNo="0" devices="tripinfo_107" vType="DEFAULT_VEHTYPE" speedFactor="1.10" vaporized=""/>
    <tripinfo id="80" depart="17.00" departLane="1_3way_2to3way_1_0" departPos="5.10" departSpeed="0.00" departDelay="0.34" arrival="75.00" arrivalLane="3_3way_1to4way_7_0" arrivalPos="85.60" arrivalSpeed="8.63" duration="58.00" routeLength="175.13" waitingTime="30.00" waitingCount="1" stopTime="0.00" timeLoss="40.65" rerouteNo="0" devices="tripinfo_80" vType="DEFAULT_VEHTYPE" speedFactor="0.78" vaporized=""/>
    <tripinfo id="109" depart="23.00" departLane="53_4way_26to4way_27_0" departPos="5.10" departSpeed="0.00" departDelay="0.29" arrival="75.00" arrivalLane="51_4way_28to4way_22_0" arrivalPos="85.60" arrivalSpeed="7.87" duration="52.00" routeLength="275.13" waitingTime="16.00" waitingCount="1" stopTime="0.00" timeLoss="31.86" rerouteNo="0" devices="tripinfo_109" vType="DEFAULT_VEHTYPE" speedFactor="1.04" vaporized=""/>
    <tripinfo id="144" depart="39.00" departLane="51_4way_22to4way_28_0" departPos="5.10" departSpeed="0.00" departDelay="9.00" arrival="75.00" arrivalLane="51_4way_22to4way_28_0" arrivalPos="85.60" arrivalSpeed="8.60" duration="36.00" routeLength="80.50" waitingTime="19.00" waitingCount="1" stopTime="0.00" timeLoss="30.44" rerouteNo="0" devices="tripinfo_144" vType="DEFAULT_VEHTYPE" speedFactor="1.07" vaporized=""/>
    <tripinfo id="12" depart="3.00" departLane="17_4way_22to3way_23_0" departPos="5.10" departSpeed="0.00" departDelay="0.50" arrival="76.00" arrivalLane="4_3way_17to3way_11_0" arrivalPos="85.60" arrivalSpeed="15.91" duration="73.00" routeLength="275.13" waitingTime="43.00" waitingCount="1" stopTime="0.00" timeLoss="55.09" rerouteNo="0" devices="tripinfo_12" vType="DEFAULT_VEHTYPE" speedFactor="1.16" vaporized=""/>
    <tripinfo id="68" depart="15.00" departLane="33_4way_16to4way_10_0" departPos="5.10" departSpeed="0.00" departDelay="0.84" arrival="76.00" arrivalLane="31_4way_10to3way_4_0" arrivalPos="85.60" arrivalSpeed="14.59" duration="61.00" routeLength="180.50" waitingTime="39.00" waitingCount="1" stopTime="0.00" timeLoss="49.02" rerouteNo="0" devices="tripinfo_68" vType="DEFAULT_VEHTYPE" speedFactor="1.09" vaporized=""/>
    <tripinfo id="1" depart="1.00" departLane="36_4way_13to4way_19_0" departPos="5.10" departSpeed="0.00" departDelay="0.79" arrival="77.00" arrivalLane="46_4way_19to4way_25_0" arrivalPos="85.60" arrivalSpeed="14.05" duration="76.00" routeLength="180.50" waitingTime="53.00" waitingCount="1" stopTime="0.00" timeLoss="63.18" rerouteNo="0" devices="tripinfo_1" vType="DEFAULT_VEHTYPE" speedFactor="1.04" vaporized=""/>
    <tripinfo id="2" depart="1.00" departLane="55_4way_8to4way_7_0" departPos="5.10" departSpeed="0.00" departDelay="0.58" arrival="77.00" arrivalLane="7_3way_12to3way_18_0" arrivalPos="85.60" arrivalSpeed="11.68" duration="76.00" routeLength="375.13" waitingTime="35.00" waitingCount="1" stopTime="0.00" timeLoss="48.78" rerouteNo="0" devices="tripinfo_2" vType="DEFAULT_VEHTYPE" speedFactor="1.04" vaporized=""/>
    <tripinfo id="22" depart="5.00" departLane="7_3way_12to3way_18_0" departPos="5.10" departSpeed="0.00" departDelay="0.42" arrival="77.00" arrivalLane="13_3way_18to4way_19_0" arrivalPos="85.60" arrivalSpeed="13.14" duration="72.00" routeLength="175.13" waitingTime="50.00" waitingCount="1" stopTime="0.00" timeLoss="58.05" rerouteNo="0" devices="tripinfo_22" vType="DEFAULT_VEHTYPE" speedFactor="1.00" vaporized=""/>
    <tripinfo id="122" depart="26.00" departLane="23_3way_3to4way_9_0" departPos="5.10" departSpeed="0.00" departDelay="0.59" arrival="77.00" arrivalLane="34_4way_9to4way_10_0" arrivalPos="85.60" arrivalSpeed="15.50" duration="51.00" routeLength="175.13" waitingTime="28.00" waitingCount="1" stopTime="0.00" timeLoss="39.35" rerouteNo="0" devices="tripinfo_122" vType="DEFAULT_VEHTYPE" speedFactor="1.20" vaporized=""/>
    <tripinfo id="159" depart="34.00" departLane="41_4way_15to4way_16_0" departPos="5.10" departSpeed="0.00" departDelay="0.88" arrival="77.00" arrivalLane="11_4way_16to3way_17_0" arrivalPos="85.60" arrivalSpeed="12.90" duration="43.00" routeLength="180.50" waitingTime="21.00" waitingCount="1" stopTime="0.00" timeLoss="29.61" rerouteNo="0" devices="tripinfo_159" vType="DEFAULT_VEHTYPE" speedFactor="0.99" vaporized=""/>
    <tripinfo id="180" depart="38.00" departLane="10_3way_17to3way_23_0" departPos="5.10" departSpeed="0.00" departDelay="0.51" arrival="77.00" arrivalLane="16_3way_23to3way_29_0" arrivalPos="85.60" arrivalSpeed="13.34" duration="39.00" routeLength="180.50" waitingTime="16.00" waitingCount="1" stopTime="0.00" timeLoss="25.98" rerouteNo="0" devices="tripinfo_180" vType="DEFAULT_VEHTYPE" speedFactor="1.04" vaporized=""/>
    <tripinfo id="181" depart="41.00" departLane="44_4way_22to4way_16_0" departPos="5.10" departSpeed="0.00" departDelay="3.30" arrival="77.00" arrivalLane="41_4way_16to4way_15_0" arrivalPos="85.60" arrivalSpeed="11.48" duration="36.00" routeLength="175.13" waitingTime="10.00" waitingCount="1" stopTime="0.00" timeLoss="21.59" rerouteNo="0" devices="tripinfo_181" vType="DEFAULT_VEHTYPE" speedFactor="0.96" vaporized=""/>
    <tripinfo id="208" depart="44.00" departLane="13_3way_18to4way_19_0" departPos="5.10" departSpeed="0.00" departDelay="0.67" arrival="77.00" arrivalLane="37_4way_13to4way_7_0" arrivalPos="85.60" arrivalSpeed="15.63" duration="33.00" routeLength="275.13" waitingTime="2.00" waitingCount="1" stopTime="0.00" timeLoss="15.40" rerouteNo="0" devices="tripinfo_208" vType="DEFAULT_VEHTYPE" speedFactor="1.21" vaporized=""/>
    <tripinfo id="216" depart="45.00" departLane="30_4way_28to3way_34_0" departPos="5.10" departSpeed="0.00" departDelay="0.01" arrival="77.00" arrivalLane="28_3way_34to3way_33_0" arrivalPos="85.60" arrivalSpeed="14.64" duration="32.00" routeLength="180.29" waitingTime="9.00" waitingCount="1" stopTime="0.00" timeLoss="19.24" rerouteNo="0" devices="tripinfo_216" vType="DEFAULT_VEHTYPE" speedFactor="1.10" vaporized=""/>
    <tripinfo id="239" depart="50.00" departLane="12_3way_24to3way_18_0" departPos="5.10" departSpeed="0.00" departDelay="0.22" arrival="77.00" arrivalLane="7_3way_18to3way_12_0" arrivalPos="85.60" arrivalSpeed="14.32" duration="27.00" routeLength="180.50" waitingTime="3.00" waitingCount="1" stopTime="0.00" timeLoss="13.75" rerouteNo="0" devices="tripinfo_239" vType="DEFAULT_VEHTYPE" speedFactor="1.05" vaporized=""/>