<?xml version="1.0" encoding="UTF-8"?>

<!-- generated on 2023-07-27 19:30:58 by Eclipse SUMO sumo Version 1.12.0
<configuration xmlns:xsi="http://www.w3.org/2001/XMLSchema-instance" xsi:noNamespaceSchemaLocation="http://sumo.dlr.de/xsd/sumoConfiguration.xsd">

    <input>
        <net-file value="../../data_generation/sq.net.xml"/>
        <route-files value="../../data_generation/sq.rou.xml"/>
    </input>

    <output>
        <tripinfo-output value="tripinfo.xml"/>
        <statistic-output value="statistic.xml"/>
    </output>

    <time>
        <begin value="0"/>
        <end value="3600"/>
    </time>

    <processing>
        <time-to-teleport value="-1"/>
    </processing>

    <traci_server>
        <remote-port value="35091"/>
    </traci_server>

    <random_number>
        <seed value="1395"/>
    </random_number>

    <gui_only>
        <gui-settings-file value="../../data_generation/view_HY_0402.xml"/>
    </gui_only>

</configuration>
-->

<tripinfos xmlns:xsi="http://www.w3.org/2001/XMLSchema-instance" xsi:noNamespaceSchemaLocation="http://sumo.dlr.de/xsd/tripinfo_file.xsd">
    <tripinfo id="22" depart="11.00" departLane="478_4way_291to4way_271_0" departPos="5.10" departSpeed="0.00" departDelay="0.00" arrival="21.00" arrivalLane="478_4way_291to4way_271_0" arrivalPos="85.60" arrivalSpeed="13.31" duration="10.00" routeLength="80.50" waitingTime="0.00" waitingCount="0" stopTime="0.00" timeLoss="3.43" rerouteNo="0" devices="tripinfo_22" vType="DEFAULT_VEHTYPE" speedFactor="1.00" vaporized=""/>
    <tripinfo id="18" depart="12.00" departLane="359_4way_230to4way_210_0" departPos="5.10" departSpeed="0.00" departDelay="3.00" arrival="29.00" arrivalLane="322_4way_210to4way_190_0" arrivalPos="85.60" arrivalSpeed="13.00" duration="17.00" routeLength="180.50" waitingTime="0.00" waitingCount="0" stopTime="0.00" timeLoss="3.30" rerouteNo="0" devices="tripinfo_18" vType="DEFAULT_VEHTYPE" speedFactor="0.96" vaporized=""/>
    <tripinfo id="27" depart="14.00" departLane="41_3way_180to3way_200_0" departPos="5.10" departSpeed="0.00" departDelay="0.50" arrival="40.00" arrivalLane="54_3way_220to4way_221_0" arrivalPos="85.60" arrivalSpeed="13.67" duration="26.00" routeLength="275.13" waitingTime="0.00" waitingCount="0" stopTime="0.00" timeLoss="6.19" rerouteNo="0" devices="tripinfo_27" vType="DEFAULT_VEHTYPE" speedFactor="1.03" vaporized=""/>
    <tripinfo id="7" depart="4.00" departLane="77_3way_359to3way_339_0" departPos="5.10" departSpeed="0.00" departDelay="0.50" arrival="53.00" arrivalLane="55_3way_259to3way_239_0" arrivalPos="85.60" arrivalSpeed="13.16" duration="49.00" routeLength="580.50" waitingTime="0.00" waitingCount="0" stopTime="0.00" timeLoss="5.02" rerouteNo="0" devices="tripinfo_7" vType="DEFAULT_VEHTYPE" speedFactor="0.95" vaporized=""/>
    <tripinfo id="9" depart="5.00" departLane="733_4way_76to4way_75_0" departPos="5.10" departSpeed="0.00" departDelay="0.50" arrival="78.00" arrivalLane="731_4way_75to4way_74_0" arrivalPos="85.60" arrivalSpeed="12.34" duration="73.00" routeLength="180.50" waitingTime="50.00" waitingCount="1" stopTime="0.00" timeLoss="57.79" rerouteNo="0" devices="tripinfo_9" vType="DEFAULT_VEHTYPE" speedFactor="0.91" vaporized=""/>
    <tripinfo id="14" depart="7.00" departLane="716_4way_66to4way_86_0" departPos="5.10" departSpeed="0.00" departDelay="0.00" arrival="80.00" arrivalLane="315_4way_187to4way_188_0" arrivalPos="85.60" arrivalSpeed="12.40" duration="73.00" routeLength="775.13" waitingTime="1.00" waitingCount="1" stopTime="0.00" timeLoss="13.30" rerouteNo="0" devices="tripinfo_14" vType="DEFAULT_VEHTYPE" speedFactor="0.95" vaporized=""/>
    <tripinfo id="93" depart="47.00" departLane="628_4way_369to4way_349_0" departPos="5.10" departSpeed="0.00" departDelay="0.50" arrival="82.00" arrivalLane="547_4way_309to4way_308_0" arrivalPos="85.60" arrivalSpeed="12.79" duration="35.00" routeLength="375.13" waitingTime="0.00" waitingCount="0" stopTime="0.00" timeLoss="6.80" rerouteNo="0" devices="tripinfo_93" vType="DEFAULT_VEHTYPE" speedFactor="1.00" vaporized=""/>
    <tripinfo id="26" depart="13.00" departLane="115_3way_394to3way_395_0" departPos="5.10" departSpeed="0.00" departDelay="0.00" arrival="83.00" arrivalLane="530_4way_318to4way_298_0" arrivalPos="85.60" arrivalSpeed="13.84" duration="70.00" routeLength="875.13" waitingTime="0.00" waitingCount="0" stopTime="0.00" timeLoss="7.71" rerouteNo="0" devices="tripinfo_26" vType="DEFAULT_VEHTYPE" speedFactor="1.03" vaporized=""/>
    <tripinfo id="115" depart="58.00" departLane="455_4way_261to4way_262_0" departPos="5.10" departSpeed="0.00" departDelay="0.50" arrival="86.00" arrivalLane="380_4way_242to4way_222_0" arrivalPos="85.60" arrivalSpeed="12.03" duration="28.00" routeLength="275.13" waitingTime="0.00" waitingCount="0" stopTime="0.00" timeLoss="5.89" rerouteNo="0" devices="tripinfo_115" vType="DEFAULT_VEHTYPE" speedFactor="0.92" vaporized=""/>
    <tripinfo id="160" depart="80.00" departLane="90_3way_382to4way_362_0" departPos="5.10" departSpeed="0.00" departDelay="0.00" arrival="90.00" arrivalLane="90_3way_382to4way_362_0" arrivalPos="85.60" arrivalSpeed="11.81" duration="10.00" routeLength="80.50" waitingTime="0.00" waitingCount="0" stopTime="0.00" timeLoss="3.01" rerouteNo="0" devices="tripinfo_160" vType="DEFAULT_VEHTYPE" speedFactor="0.88" vaporized=""/>
    <tripinfo id="167" depart="84.00" departLane="697_4way_54to4way_74_0" departPos="5.10" departSpeed="0.00" departDelay="0.50" arrival="94.00" arrivalLane="697_4way_54to4way_74_0" arrivalPos="85.60" arrivalSpeed="11.16" duration="10.00" routeLength="80.50" waitingTime="0.00" waitingCount="0" stopTime="0.00" timeLoss="2.66" rerouteNo="0" devices="tripinfo_167" vType="DEFAULT_VEHTYPE" speedFactor="0.85" vaporized=""/>
    <tripinfo id="198" depart="99.00" departLane="540_4way_324to4way_304_0" departPos="5.10" departSpeed="0.00" departDelay="0.00" arrival="108.00" arrivalLane="540_4way_324to4way_304_0" arrivalPos="85.60" arrivalSpeed="11.41" duration="9.00" routeLength="80.50" waitingTime="0.00" waitingCount="0" stopTime="0.00" timeLoss="2.34" rerouteNo="0" devices="tripinfo_198" vType="DEFAULT_VEHTYPE" speedFactor="0.87" vaporized=""/>
    <tripinfo id="156" depart="78.00" departLane="81_3way_379to3way_359_0" departPos="5.10" departSpeed="0.00" departDelay="0.00" arrival="112.00" arrivalLane="67_3way_319to3way_299_0" arrivalPos="85.60" arrivalSpeed="11.70" duration="34.00" routeLength="380.50" waitingTime="0.00" waitingCount="0" stopTime="0.00" timeLoss="3.60" rerouteNo="0" devices="tripinfo_156" vType="DEFAULT_VEHTYPE" speedFactor="0.91" vaporized=""/>
    <tripinfo id="8" depart="4.00" departLane="188_4way_135to4way_115_0" departPos="5.10" departSpeed="0.00" departDelay="0.00" arrival="115.00" arrivalLane="5_3way_10to3way_9_0" arrivalPos="85.60" arrivalSpeed="13.50" duration="111.00" routeLength="1175.13" waitingTime="12.00" waitingCount="1" stopTime="0.00" timeLoss="23.44" rerouteNo="0" devices="tripinfo_8" vType="DEFAULT_VEHTYPE" speedFactor="0.98" vaporized=""/>
    <tripinfo id="126" depart="63.00" departLane="328_4way_193to4way_213_0" departPos="5.10" departSpeed="0.00" departDelay="0.00" arrival="118.00" arrivalLane="560_4way_313to4way_333_0" arrivalPos="85.60" arrivalSpeed="13.35" duration="55.00" routeLength="680.50" waitingTime="0.00" waitingCount="0" stopTime="0.00" timeLoss="5.54" rerouteNo="0" devices="tripinfo_126" vType="DEFAULT_VEHTYPE" speedFactor="1.01" vaporized=""/>
    <tripinfo id="108" depart="54.00" departLane="242_4way_165to4way_145_0" departPos="5.10" departSpeed="0.00" departDelay="0.00" arrival="127.00" arrivalLane="414_4way_25to4way_24_0" arrivalPos="85.60" arrivalSpeed="11.03" duration="73.00" routeLength="775.13" waitingTime="0.00" waitingCount="0" stopTime="0.00" timeLoss="8.05" rerouteNo="0" devices="tripinfo_108" vType="DEFAULT_VEHTYPE" speedFactor="0.88" vaporized=""/>
    <tripinfo id="62" depart="31.00" departLane="217_4way_150to4way_130_0" departPos="5.10" departSpeed="0.00" departDelay="0.00" arrival="136.00" arrivalLane="208_4way_127to4way_126_0" arrivalPos="85.60" arrivalSpeed="13.63" duration="105.00" routeLength="475.13" waitingTime="55.00" waitingCount="2" stopTime="0.00" timeLoss="71.75" rerouteNo="0" devices="tripinfo_62" vType="DEFAULT_VEHTYPE" speedFactor="1.05" vaporized=""/>
    <tripinfo id="148" depart="74.00" departLane="118_4way_375to3way_395_0" departPos="5.10" departSpeed="0.00" departDelay="0.00" arrival="136.00" arrivalLane="117_3way_395to3way_396_0" arrivalPos="85.60" arrivalSpeed="14.21" duration="62.00" routeLength="175.13" waitingTime="40.00" waitingCount="1" stopTime="0.00" timeLoss="49.49" rerouteNo="0" devices="tripinfo_148" vType="DEFAULT_VEHTYPE" speedFactor="1.07" vaporized=""/>
    <tripinfo id="37" depart="19.00" departLane="27_3way_16to3way_15_0" departPos="5.10" departSpeed="0.00" departDelay="0.50" arrival="137.00" arrivalLane="183_4way_93to4way_113_0" arrivalPos="85.60" arrivalSpeed="13.51" duration="118.00" routeLength="775.13" waitingTime="48.00" waitingCount="1" stopTime="0.00" timeLoss="60.87" rerouteNo="0" devices="tripinfo_37" vType="DEFAULT_VEHTYPE" speedFactor="0.99" vaporized=""/>
    <tripinfo id="118" depart="59.00" departLane="745_4way_87to4way_86_0" departPos="5.10" departSpeed="0.00" departDelay="0.00" arrival="137.00" arrivalLane="159_4way_85to4way_105_0" arrivalPos="85.60" arrivalSpeed="14.20" duration="78.00" routeLength="275.13" waitingTime="49.00" waitingCount="1" stopTime="0.00" timeLoss="57.76" rerouteNo="0" devices="tripinfo_118" vType="DEFAULT_VEHTYPE" speedFactor="1.05" vaporized=""/>
    <tripinfo id="203" depart="102.00" departLane="708_4way_62to4way_82_0" departPos="5.10" departSpeed="0.00" departDelay="0.50" arrival="137.00" arrivalLane="742_4way_83to4way_84_0" arrivalPos="85.60" arrivalSpeed="12.99" duration="35.00" routeLength="275.13" waitingTime="2.00" waitingCount="1" stopTime="0.00" timeLoss="13.33" rerouteNo="0" devices="tripinfo_203" vType="DEFAULT_VEHTYPE" speedFactor="0.95" vaporized=""/>
    <tripinfo id="23" depart="12.00" departLane="92_3way_383to4way_363_0" departPos="5.10" departSpeed="0.00" departDelay="0.50" arrival="138.00" arrivalLane="416_4way_242to4way_241_0" arrivalPos="85.60" arrivalSpeed="11.93" duration="126.00" routeLength="875.13" waitingTime="39.00" waitingCount="1" stopTime="0.00" timeLoss="52.95" rerouteNo="0" devices="tripinfo_23" vType="DEFAULT_VEHTYPE" speedFactor="0.87" vaporized=""/>
    <tripinfo id="47" depart="24.00" departLane="357_4way_21to4way_41_0" departPos="5.10" departSpeed="0.00" departDelay="0.50" arrival="138.00" arrivalLane="235_4way_142to4way_143_0" arrivalPos="85.60" arrivalSpeed="12.16" duration="114.00" routeLength="775.13" waitingTime="38.00" waitingCount="1" stopTime="0.00" timeLoss="50.61" rerouteNo="0" devices="tripinfo_47" vType="DEFAULT_VEHTYPE" speedFactor="0.90" vaporized=""/>
    <tripinfo id="164" depart="82.00" departLane="207_4way_145to4way_125_0" departPos="5.10" departSpeed="0.00" departDelay="0.00" arrival="139.00" arrivalLane="151_4way_104to4way_103_0" arrivalPos="85.60" arrivalSpeed="14.38" duration="57.00" routeLength="375.13" waitingTime="18.00" waitingCount="1" stopTime="0.00" timeLoss="31.21" rerouteNo="0" devices="tripinfo_164" vType="DEFAULT_VEHTYPE" speedFactor="1.11" vaporized=""/>
    <tripinfo id="20" depart="10.00" departLane="424_4way_246to4way_245_0" departPos="5.10" departSpeed="0.00" departDelay="0.00" arrival="140.00" arrivalLane="617_4way_345to4way_344_0" arrivalPos="85.60" arrivalSpeed="11.39" duration="130.00" routeLength="674.93" waitingTime="57.00" waitingCount="2" stopTime="0.00" timeLoss="73.83" rerouteNo="0" devices="tripinfo_20" vType="DEFAULT_VEHTYPE" speedFactor="0.89" vaporized=""/>
    <tripinfo id="10" depart="5.00" departLane="405_4way_234to4way_235_0" departPos="5.10" departSpeed="0.00" departDelay="0.00" arrival="146.00" arrivalLane="374_4way_238to4way_218_0" arrivalPos="85.60" arrivalSpeed="13.46" duration="141.00" routeLength="475.13" waitingTime="91.00" waitingCount="2" stopTime="0.00" timeLoss="106.86" rerouteNo="0" devices="tripinfo_10" vType="DEFAULT_VEHTYPE" speedFactor="1.04" vaporized=""/>
    <tripinfo id="65" depart="33.00" departLane="279_4way_166to4way_186_0" departPos="5.10" departSpeed="0.00" departDelay="0.50" arrival="147.00" arrivalLane="393_4way_229to4way_230_0" arrivalPos="85.60" arrivalSpeed="15.85" duration="114.00" routeLength="675.13" waitingTime="48.00" waitingCount="2" stopTime="0.00" timeLoss="71.96" rerouteNo="0" devices="tripinfo_65" vType="DEFAULT_VEHTYPE" speedFactor="1.20" vaporized=""/>
    <tripinfo id="138" depart="69.00" departLane="405_4way_234to4way_235_0" departPos="5.10" departSpeed="0.00" departDelay="0.00" arrival="147.00" arrivalLane="451_4way_257to4way_277_0" arrivalPos="85.60" arrivalSpeed="13.79" duration="78.00" routeLength="480.30" waitingTime="33.00" waitingCount="1" stopTime="0.00" timeLoss="42.22" rerouteNo="0" devices="tripinfo_138" vType="DEFAULT_VEHTYPE" speedFactor="1.00" vaporized=""/>
    <tripinfo id="103" depart="52.00" departLane="655_4way_366to4way_367_0" departPos="5.10" departSpeed="0.00" departDelay="0.50" arrival="149.00" arrivalLane="661_4way_370to4way_371_0" arrivalPos="85.60" arrivalSpeed="15.56" duration="97.00" routeLength="480.50" waitingTime="49.00" waitingCount="2" stopTime="0.00" timeLoss="66.83" rerouteNo="0" devices="tripinfo_103" vType="DEFAULT_VEHTYPE" speedFactor="1.15" vaporized=""/>
    <tripinfo id="116" depart="58.00" departLane="4_3way_11to3way_10_0" departPos="5.10" departSpeed="0.00" departDelay="0.00" arrival="151.00" arrivalLane="248_4way_148to4way_168_0" arrivalPos="85.60" arrivalSpeed="8.70" duration="93.00" routeLength="1075.13" waitingTime="0.00" waitingCount="0" stopTime="0.00" timeLoss="13.70" rerouteNo="0" devices="tripinfo_116" vType="DEFAULT_VEHTYPE" speedFactor="0.99" vaporized=""/>
    <tripinfo id="163" depart="82.00" departLane="179_4way_132to4way_112_0" departPos="5.10" departSpeed="0.00" departDelay="0.50" arrival="153.00" arrivalLane="571_4way_52to4way_32_0" arrivalPos="85.60" arrivalSpeed="12.67" duration="71.00" routeLength="480.50" waitingTime="23.00" waitingCount="1" stopTime="0.00" timeLoss="33.91" rerouteNo="0" devices="tripinfo_163" vType="DEFAULT_VEHTYPE" speedFactor="0.94" vaporized=""/>
    <tripinfo id="175" depart="88.00" departLane="23_3way_15to3way_14_0" departPos="5.10" departSpeed="0.00" departDelay="0.50" arrival="154.00" arrivalLane="726_4way_71to4way_91_0" arrivalPos="85.60" arrivalSpeed="13.46" duration="66.00" routeLength="775.13" waitingTime="0.00" waitingCount="0" stopTime="0.00" timeLoss="8.23" rerouteNo="0" devices="tripinfo_175" vType="DEFAULT_VEHTYPE" speedFactor="0.99" vaporized=""/>
    <tripinfo id="40" depart="20.00" departLane="716_4way_66to4way_86_0" departPos="5.10" departSpeed="0.00" departDelay="0.00" arrival="159.00" arrivalLane="616_4way_343to4way_363_0" arrivalPos="85.60" arrivalSpeed="14.27" duration="139.00" routeLength="1774.93" waitingTime="1.00" waitingCount="1" stopTime="0.00" timeLoss="19.59" rerouteNo="0" devices="tripinfo_40" vType="DEFAULT_VEHTYPE" speedFactor="1.08" vaporized=""/>
    <tripinfo id="197" depart="99.00" departLane="669_4way_58to4way_38_0" departPos="5.10" departSpeed="0.00" departDelay="0.50" arrival="159.00" arrivalLane="23_3way_15to3way_14_0" arrivalPos="85.60" arrivalSpeed="13.69" duration="60.00" routeLength="575.13" waitingTime="8.00" waitingCount="1" stopTime="0.00" timeLoss="18.03" rerouteNo="0" devices="tripinfo_197" vType="DEFAULT_VEHTYPE" speedFactor="1.01" vaporized=""/>
    <tripinfo id="303" depart="152.00" departLane="148_4way_102to4way_103_0" departPos="5.10" departSpeed="0.00" departDelay="0.50" arrival="161.00" arrivalLane="148_4way_102to4way_103_0" arrivalPos="85.60" arrivalSpeed="13.16" duration="9.00" routeLength="80.50" waitingTime="0.00" waitingCount="0" stopTime="0.00" timeLoss="3.20" rerouteNo="0" devices="tripinfo_303" vType="DEFAULT_VEHTYPE" speedFactor="1.02" vaporized=""/>
    <tripinfo id="142" depart="71.00" departLane="66_3way_280to4way_281_0" departPos="5.10" departSpeed="0.00" departDelay="0.00" arrival="167.00" arrivalLane="423_4way_264to4way_244_0" arrivalPos="85.60" arrivalSpeed="14.94" duration="96.00" routeLength="575.13" waitingTime="44.00" waitingCount="1" stopTime="0.00" timeLoss="56.25" rerouteNo="0" devices="tripinfo_142" vType="DEFAULT_VEHTYPE" speedFactor="1.09" vaporized=""/>
    <tripinfo id="177" depart="89.00" departLane="661_4way_371to4way_370_0" departPos="5.10" departSpeed="0.00" departDelay="0.50" arrival="169.00" arrivalLane="548_4way_328to4way_308_0" arrivalPos="85.60" arrivalSpeed="14.16" duration="80.00" routeLength="580.30" waitingTime="25.00" waitingCount="1" stopTime="0.00" timeLoss="38.04" rerouteNo="0" devices="tripinfo_177" vType="DEFAULT_VEHTYPE" speedFactor="1.03" vaporized=""/>
    <tripinfo id="89" depart="45.00" departLane="15_3way_13to3way_12_0" departPos="5.10" departSpeed="0.00" departDelay="0.50" arrival="170.00" arrivalLane="291_4way_172to4way_192_0" arrivalPos="85.60" arrivalSpeed="12.05" duration="125.00" routeLength="975.13" waitingTime="36.00" waitingCount="1" stopTime="0.00" timeLoss="47.84" rerouteNo="0" devices="tripinfo_89" vType="DEFAULT_VEHTYPE" speedFactor="0.93" vaporized=""/>
    <tripinfo id="332" depart="166.00" departLane="542_4way_305to4way_325_0" departPos="5.10" departSpeed="0.00" departDelay="0.00" arrival="176.00" arrivalLane="542_4way_305to4way_325_0" arrivalPos="85.60" arrivalSpeed="10.72" duration="10.00" routeLength="80.50" waitingTime="0.00" waitingCount="0" stopTime="0.00" timeLoss="2.39" rerouteNo="0" devices="tripinfo_332" vType="DEFAULT_VEHTYPE" speedFactor="0.83" vaporized=""/>
    <tripinfo id="324" depart="162.00" departLane="120_3way_396to4way_376_0" departPos="5.10" departSpeed="0.00" departDelay="0.00" arrival="180.00" arrivalLane="666_4way_376to4way_375_0" arrivalPos="85.60" arrivalSpeed="13.43" duration="18.00" routeLength="175.13" waitingTime="0.00" waitingCount="0" stopTime="0.00" timeLoss="5.31" rerouteNo="0" devices="tripinfo_324" vType="DEFAULT_VEHTYPE" speedFactor="1.05" vaporized=""/>
    <tripinfo id="316" depart="158.00" departLane="315_4way_188to4way_187_0" departPos="5.10" departSpeed="0.00" departDelay="0.00" arrival="187.00" arrivalLane="314_4way_186to4way_206_0" arrivalPos="85.60" arrivalSpeed="11.22" duration="29.00" routeLength="275.13" waitingTime="0.00" waitingCount="0" stopTime="0.00" timeLoss="5.87" rerouteNo="0" devices="tripinfo_316" vType="DEFAULT_VEHTYPE" speedFactor="0.89" vaporized=""/>
    <tripinfo id="16" depart="8.00" departLane="320_4way_209to4way_189_0" departPos="5.10" departSpeed="0.00" departDelay="0.00" arrival="190.00" arrivalLane="473_4way_28to4way_27_0" arrivalPos="85.60" arrivalSpeed="4.80" duration="182.00" routeLength="1075.13" waitingTime="79.00" waitingCount="2" stopTime="0.00" timeLoss="95.41" rerouteNo="0" devices="tripinfo_16" vType="DEFAULT_VEHTYPE" speedFactor="0.90" vaporized=""/>
    <tripinfo id="59" depart="30.00" departLane="179_4way_112to4way_132_0" departPos="5.10" departSpeed="0.00" departDelay="0.50" arrival="190.00" arrivalLane="296_4way_175to4way_176_0" arrivalPos="85.60" arrivalSpeed="4.98" duration="160.00" routeLength="675.13" waitingTime="88.00" waitingCount="3" stopTime="0.00" timeLoss="112.47" rerouteNo="0" devices="tripinfo_59" vType="DEFAULT_VEHTYPE" speedFactor="1.03" vaporized=""/>
    <tripinfo id="149" depart="75.00" departLane="739_4way_78to4way_98_0" departPos="5.10" departSpeed="0.00" departDelay="0.50" arrival="190.00" arrivalLane="267_4way_158to4way_178_0" arrivalPos="85.60" arrivalSpeed="6.12" duration="115.00" routeLength="480.50" waitingTime="62.00" waitingCount="2" stopTime="0.00" timeLoss="78.42" rerouteNo="0" devices="tripinfo_149" vType="DEFAULT_VEHTYPE" speedFactor="0.95" vaporized=""/>
    <tripinfo id="217" depart="109.00" departLane="209_4way_126to4way_146_0" departPos="5.10" departSpeed="0.00" departDelay="0.50" arrival="190.00" arrivalLane="245_4way_147to4way_148_0" arrivalPos="85.60" arrivalSpeed="6.45" duration="81.00" routeLength="275.13" waitingTime="45.00" waitingCount="1" stopTime="0.00" timeLoss="62.44" rerouteNo="0" devices="tripinfo_217" vType="DEFAULT_VEHTYPE" speedFactor="1.12" vaporized=""/>
    <tripinfo id="318" depart="159.00" departLane="109_3way_392to3way_391_0" departPos="5.10" departSpeed="0.00" departDelay="0.00" arrival="190.00" arrivalLane="101_3way_389to3way_388_0" arrivalPos="85.60" arrivalSpeed="13.73" duration="31.00" routeLength="380.50" waitingTime="0.00" waitingCount="0" stopTime="0.00" timeLoss="3.92" rerouteNo="0" devices="tripinfo_318" vType="DEFAULT_VEHTYPE" speedFactor="1.01" vaporized=""/>
    <tripinfo id="326" depart="163.00" departLane="18_3way_120to4way_121_0" departPos="5.10" departSpeed="0.00" departDelay="0.00" arrival="190.00" arrivalLane="198_4way_121to4way_122_0" arrivalPos="85.60" arrivalSpeed="6.02" duration="27.00" routeLength="180.50" waitingTime="6.00" waitingCount="1" stopTime="0.00" timeLoss="13.83" rerouteNo="0" devices="tripinfo_326" vType="DEFAULT_VEHTYPE" speedFactor="1.00" vaporized=""/>
    <tripinfo id="95" depart="48.00" departLane="417_4way_241to4way_261_0" departPos="5.10" departSpeed="0.00" departDelay="0.50" arrival="193.00" arrivalLane="500_4way_284to4way_285_0" arrivalPos="85.60" arrivalSpeed="5.70" duration="145.00" routeLength="575.13" waitingTime="77.00" waitingCount="2" stopTime="0.00" timeLoss="96.95" rerouteNo="0" devices="tripinfo_95" vType="DEFAULT_VEHTYPE" speedFactor="0.88" vaporized=""/>
    <tripinfo id="351" depart="176.00" departLane="73_3way_339to3way_319_0" departPos="5.10" departSpeed="0.00" departDelay="0.50" arrival="195.00" arrivalLane="67_3way_319to3way_299_0" arrivalPos="85.60" arrivalSpeed="11.10" duration="19.00" routeLength="180.50" waitingTime="0.00" waitingCount="0" stopTime="0.00" timeLoss="3.77" rerouteNo="0" devices="tripinfo_351" vType="DEFAULT_VEHTYPE" speedFactor="0.85" vaporized=""/>
    <tripinfo id="67" depart="34.00" departLane="628_4way_369to4way_349_0" departPos="5.10" departSpeed="0.00" departDelay="0.50" arrival="197.00" arrivalLane="355_4way_229to4way_209_0" arrivalPos="85.60" arrivalSpeed="11.82" duration="163.00" routeLength="780.50" waitingTime="84.00" waitingCount="2" stopTime="0.00" timeLoss="99.12" rerouteNo="0" devices="tripinfo_67" vType="DEFAULT_VEHTYPE" speedFactor="0.88" vaporized=""/>
    <tripinfo id="127" depart="64.00" departLane="78_3way_339to4way_338_0" departPos="5.10" departSpeed="0.00" departDelay="0.50" arrival="197.00" arrivalLane="604_4way_337to4way_336_0" arrivalPos="85.60" arrivalSpeed="13.12" duration="133.00" routeLength="280.50" waitingTime="99.00" waitingCount="2" stopTime="0.00" timeLoss="111.78" rerouteNo="0" devices="tripinfo_127" vType="DEFAULT_VEHTYPE" speedFactor="1.00" vaporized=""/>
    <tripinfo id="189" depart="95.00" departLane="512_4way_30to4way_29_0" departPos="5.10" departSpeed="0.00" departDelay="0.50" arrival="197.00" arrivalLane="474_4way_27to4way_47_0" arrivalPos="85.60" arrivalSpeed="11.70" duration="102.00" routeLength="375.13" waitingTime="58.00" waitingCount="2" stopTime="0.00" timeLoss="71.49" rerouteNo="0" devices="tripinfo_189" vType="DEFAULT_VEHTYPE" speedFactor="0.92" vaporized=""/>
    <tripinfo id="232" depart="116.00" departLane="8_3way_80to3way_100_0" departPos="5.10" departSpeed="0.00" departDelay="0.00" arrival="197.00" arrivalLane="145_4way_101to4way_102_0" arrivalPos="85.60" arrivalSpeed="14.21" duration="81.00" routeLength="275.13" waitingTime="49.00" waitingCount="1" stopTime="0.00" timeLoss="60.98" rerouteNo="0" devices="tripinfo_232" vType="DEFAULT_VEHTYPE" speedFactor="1.06" vaporized=""/>
    <tripinfo id="98" depart="49.00" departLane="341_4way_222to4way_202_0" departPos="5.10" departSpeed="0.00" departDelay="0.00" arrival="198.00" arrivalLane="376_4way_42to4way_22_0" arrivalPos="85.60" arrivalSpeed="11.21" duration="149.00" routeLength="980.50" waitingTime="56.00" waitingCount="1" stopTime="0.00" timeLoss="68.53" rerouteNo="0" devices="tripinfo_98" vType="DEFAULT_VEHTYPE" speedFactor="0.88" vaporized=""/>
    <tripinfo id="262" depart="131.00" departLane="714_4way_85to4way_65_0" departPos="5.10" departSpeed="0.00" departDelay="0.00" arrival="198.00" arrivalLane="124_3way_5to3way_4_0" arrivalPos="85.60" arrivalSpeed="12.76" duration="67.00" routeLength="475.13" waitingTime="17.00" waitingCount="1" stopTime="0.00" timeLoss="28.80" rerouteNo="0" devices="tripinfo_262" vType="DEFAULT_VEHTYPE" speedFactor="0.93" vaporized=""/>
    <tripinfo id="312" depart="156.00" departLane="409_4way_236to4way_237_0" departPos="5.10" departSpeed="0.00" departDelay="0.00" arrival="199.00" arrivalLane="337_4way_218to4way_198_0" arrivalPos="85.60" arrivalSpeed="12.79" duration="43.00" routeLength="375.13" waitingTime="4.00" waitingCount="1" stopTime="0.00" timeLoss="14.51" rerouteNo="0" devices="tripinfo_312" vType="DEFAULT_VEHTYPE" speedFactor="0.98" vaporized=""/>
    <tripinfo id="158" depart="79.00" departLane="166_4way_109to4way_108_0" departPos="5.10" departSpeed="0.00" departDelay="0.00" arrival="205.00" arrivalLane="160_4way_107to4way_106_0" arrivalPos="85.60" arrivalSpeed="12.95" duration="126.00" routeLength="280.50" waitingTime="95.00" waitingCount="1" stopTime="0.00" timeLoss="104.14" rerouteNo="0" devices="tripinfo_158" vType="DEFAULT_VEHTYPE" speedFactor="0.96" vaporized=""/>
    <tripinfo id="207" depart="104.00" departLane="377_4way_222to4way_221_0" departPos="5.10" departSpeed="0.00" departDelay="0.50" arrival="208.00" arrivalLane="534_4way_301to4way_321_0" arrivalPos="85.60" arrivalSpeed="12.89" duration="104.00" routeLength="575.13" waitingTime="39.00" waitingCount="2" stopTime="0.00" timeLoss="69.75" rerouteNo="0" devices="tripinfo_207" vType="DEFAULT_VEHTYPE" speedFactor="1.24" vaporized=""/>
    <tripinfo id="257" depart="129.00" departLane="438_4way_252to4way_251_0" departPos="5.10" departSpeed="0.00" departDelay="0.50" arrival="210.00" arrivalLane="437_4way_250to4way_270_0" arrivalPos="85.60" arrivalSpeed="11.28" duration="81.00" routeLength="275.13" waitingTime="45.00" waitingCount="1" stopTime="0.00" timeLoss="55.57" rerouteNo="0" devices="tripinfo_257" vType="DEFAULT_VEHTYPE" speedFactor="0.83" vaporized=""/>
    <tripinfo id="187" depart="94.00" departLane="42_3way_180to4way_181_0" departPos="5.10" departSpeed="0.00" departDelay="0.50" arrival="211.00" arrivalLane="201_4way_142to4way_122_0" arrivalPos="85.60" arrivalSpeed="14.11" duration="117.00" routeLength="475.13" waitingTime="68.00" waitingCount="2" stopTime="0.00" timeLoss="82.93" rerouteNo="0" devices="tripinfo_187" vType="DEFAULT_VEHTYPE" speedFactor="1.03" vaporized=""/>
    <tripinfo id="251" depart="126.00" departLane="362_4way_213to4way_212_0" departPos="5.10" departSpeed="0.00" departDelay="0.50" arrival="213.00" arrivalLane="352_4way_209to4way_208_0" arrivalPos="85.60" arrivalSpeed="12.47" duration="87.00" routeLength="480.50" waitingTime="42.00" waitingCount="1" stopTime="0.00" timeLoss="51.39" rerouteNo="0" devices="tripinfo_251" vType="DEFAULT_VEHTYPE" speedFactor="0.99" vaporized=""/>
    <tripinfo id="69" depart="35.00" departLane="313_4way_186to4way_187_0" departPos="5.10" departSpeed="0.00" departDelay="0.50" arrival="219.00" arrivalLane="254_4way_171to4way_151_0" arrivalPos="85.60" arrivalSpeed="10.24" duration="184.00" routeLength="675.13" waitingTime="102.00" waitingCount="3" stopTime="0.00" timeLoss="123.16" rerouteNo="0" devices="tripinfo_69" vType="DEFAULT_VEHTYPE" speedFactor="0.82" vaporized=""/>
    <tripinfo id="357" depart="179.00" departLane="34_4way_161to3way_160_0" departPos="5.10" departSpeed="0.00" departDelay="0.50" arrival="220.00" arrivalLane="53_3way_220to3way_240_0" arrivalPos="85.60" arrivalSpeed="13.95" duration="41.00" routeLength="475.13" waitingTime="0.00" waitingCount="0" stopTime="0.00" timeLoss="6.21" rerouteNo="0" devices="tripinfo_357" vType="DEFAULT_VEHTYPE" speedFactor="1.04" vaporized=""/>
    <tripinfo id="245" depart="123.00" departLane="512_4way_30to4way_29_0" departPos="5.10" departSpeed="0.00" departDelay="0.50" arrival="229.00" arrivalLane="395_4way_24to4way_23_0" arrivalPos="85.60" arrivalSpeed="15.38" duration="106.00" routeLength="680.50" waitingTime="53.00" waitingCount="1" stopTime="0.00" timeLoss="62.77" rerouteNo="0" devices="tripinfo_245" vType="DEFAULT_VEHTYPE" speedFactor="1.15" vaporized=""/>
    <tripinfo id="64" depart="32.00" departLane="238_4way_143to4way_163_0" departPos="5.10" departSpeed="0.00" departDelay="0.00" arrival="231.00" arrivalLane="358_4way_210to4way_211_0" arrivalPos="85.60" arrivalSpeed="12.27" duration="199.00" routeLength="1075.13" waitingTime="90.00" waitingCount="2" stopTime="0.00" timeLoss="117.31" rerouteNo="0" devices="tripinfo_64" vType="DEFAULT_VEHTYPE" speedFactor="0.96" vaporized=""/>
    <tripinfo id="445" depart="223.00" departLane="465_4way_267to4way_266_0" departPos="5.10" departSpeed="0.00" departDelay="0.50" arrival="233.00" arrivalLane="465_4way_267to4way_266_0" arrivalPos="85.60" arrivalSpeed="14.15" duration="10.00" routeLength="80.50" waitingTime="0.00" waitingCount="0" stopTime="0.00" timeLoss="3.35" rerouteNo="0" devices="tripinfo_445" vType="DEFAULT_VEHTYPE" speedFactor="1.02" vaporized=""/>
    <tripinfo id="331" depart="166.00" departLane="90_4way_362to3way_382_0" departPos="5.10" departSpeed="0.00" departDelay="0.50" arrival="238.00" arrivalLane="99_3way_387to3way_388_0" arrivalPos="85.60" arrivalSpeed="13.00" duration="72.00" routeLength="675.13" waitingTime="9.00" waitingCount="1" stopTime="0.00" timeLoss="18.91" rerouteNo="0" devices="tripinfo_331" vType="DEFAULT_VEHTYPE" speedFactor="0.94" vaporized=""/>