<?xml version="1.0" encoding="UTF-8"?>

<!-- generated on 2023-08-22 18:09:34 by Eclipse SUMO sumo Version 1.12.0
<configuration xmlns:xsi="http://www.w3.org/2001/XMLSchema-instance" xsi:noNamespaceSchemaLocation="http://sumo.dlr.de/xsd/sumoConfiguration.xsd">

    <input>
        <net-file value="../../data_generation/sq.net.xml"/>
        <route-files value="../../data_generation/sq.rou.xml"/>
    </input>

    <output>
        <tripinfo-output value="tripinfo.xml"/>
        <statistic-output value="statistic.xml"/>
    </output>

    <time>
        <begin value="0"/>
        <end value="3600"/>
    </time>

    <processing>
        <time-to-teleport value="-1"/>
    </processing>

    <traci_server>
        <remote-port value="40175"/>
    </traci_server>

    <random_number>
        <seed value="1395"/>
    </random_number>

    <gui_only>
        <gui-settings-file value="../../data_generation/view_HY_0402.xml"/>
    </gui_only>

</configuration>
-->

<tripinfos xmlns:xsi="http://www.w3.org/2001/XMLSchema-instance" xsi:noNamespaceSchemaLocation="http://sumo.dlr.de/xsd/tripinfo_file.xsd">
    <tripinfo id="22" depart="2.00" departLane="1159_4way_90to4way_65_0" departPos="5.10" departSpeed="0.00" departDelay="0.90" arrival="19.00" arrivalLane="777_4way_65to4way_40_0" arrivalPos="85.60" arrivalSpeed="13.78" duration="17.00" routeLength="180.50" waitingTime="0.00" waitingCount="0" stopTime="0.00" timeLoss="3.13" rerouteNo="0" devices="tripinfo_22" vType="DEFAULT_VEHTYPE" speedFactor="1.00" vaporized=""/>
    <tripinfo id="198" depart="10.00" departLane="689_4way_381to4way_356_0" departPos="5.10" departSpeed="0.00" departDelay="0.10" arrival="20.00" arrivalLane="689_4way_381to4way_356_0" arrivalPos="85.60" arrivalSpeed="11.41" duration="10.00" routeLength="80.50" waitingTime="0.00" waitingCount="0" stopTime="0.00" timeLoss="3.30" rerouteNo="0" devices="tripinfo_198" vType="DEFAULT_VEHTYPE" speedFactor="0.87" vaporized=""/>
    <tripinfo id="213" depart="11.00" departLane="97_3way_474to3way_449_0" departPos="5.10" departSpeed="0.00" departDelay="0.35" arrival="31.00" arrivalLane="98_3way_449to4way_448_0" arrivalPos="85.60" arrivalSpeed="11.54" duration="20.00" routeLength="175.13" waitingTime="0.00" waitingCount="0" stopTime="0.00" timeLoss="5.50" rerouteNo="0" devices="tripinfo_213" vType="DEFAULT_VEHTYPE" speedFactor="0.91" vaporized=""/>
    <tripinfo id="326" depart="17.00" departLane="627_4way_326to4way_327_0" departPos="5.10" departSpeed="0.00" departDelay="0.70" arrival="34.00" arrivalLane="629_4way_327to4way_328_0" arrivalPos="85.60" arrivalSpeed="12.68" duration="17.00" routeLength="180.50" waitingTime="0.00" waitingCount="0" stopTime="0.00" timeLoss="3.99" rerouteNo="0" devices="tripinfo_326" vType="DEFAULT_VEHTYPE" speedFactor="1.00" vaporized=""/>
    <tripinfo id="576" depart="29.00" departLane="302_4way_154to4way_153_0" departPos="5.10" departSpeed="0.00" departDelay="0.20" arrival="38.00" arrivalLane="302_4way_154to4way_153_0" arrivalPos="85.60" arrivalSpeed="13.33" duration="9.00" routeLength="80.50" waitingTime="0.00" waitingCount="0" stopTime="0.00" timeLoss="3.15" rerouteNo="0" devices="tripinfo_576" vType="DEFAULT_VEHTYPE" speedFactor="1.00" vaporized=""/>
    <tripinfo id="610" depart="31.00" departLane="626_4way_323to4way_348_0" departPos="5.10" departSpeed="0.00" departDelay="0.50" arrival="41.00" arrivalLane="626_4way_323to4way_348_0" arrivalPos="85.60" arrivalSpeed="12.15" duration="10.00" routeLength="80.50" waitingTime="0.00" waitingCount="0" stopTime="0.00" timeLoss="3.12" rerouteNo="0" devices="tripinfo_610" vType="DEFAULT_VEHTYPE" speedFactor="0.93" vaporized=""/>
    <tripinfo id="443" depart="23.00" departLane="1005_4way_516to4way_517_0" departPos="5.10" departSpeed="0.00" departDelay="0.85" arrival="43.00" arrivalLane="961_4way_517to4way_492_0" arrivalPos="85.60" arrivalSpeed="11.14" duration="20.00" routeLength="175.13" waitingTime="0.00" waitingCount="0" stopTime="0.00" timeLoss="5.08" rerouteNo="0" devices="tripinfo_443" vType="DEFAULT_VEHTYPE" speedFactor="0.88" vaporized=""/>
    <tripinfo id="531" depart="27.00" departLane="176_3way_8to3way_7_0" departPos="5.10" departSpeed="0.00" departDelay="0.45" arrival="56.00" arrivalLane="89_3way_5to3way_4_0" arrivalPos="85.60" arrivalSpeed="14.46" duration="29.00" routeLength="380.50" waitingTime="0.00" waitingCount="0" stopTime="0.00" timeLoss="4.16" rerouteNo="0" devices="tripinfo_531" vType="DEFAULT_VEHTYPE" speedFactor="1.11" vaporized=""/>
    <tripinfo id="841" depart="43.00" departLane="45_3way_21to3way_20_0" departPos="5.10" departSpeed="0.00" departDelay="0.95" arrival="62.00" arrivalLane="46_3way_20to4way_45_0" arrivalPos="85.60" arrivalSpeed="13.85" duration="19.00" routeLength="175.13" waitingTime="0.00" waitingCount="0" stopTime="0.00" timeLoss="5.21" rerouteNo="0" devices="tripinfo_841" vType="DEFAULT_VEHTYPE" speedFactor="1.02" vaporized=""/>
    <tripinfo id="294" depart="15.00" departLane="623_4way_321to4way_346_0" departPos="5.10" departSpeed="0.00" departDelay="0.30" arrival="63.00" arrivalLane="88_4way_398to3way_399_0" arrivalPos="85.60" arrivalSpeed="14.04" duration="48.00" routeLength="575.13" waitingTime="0.00" waitingCount="0" stopTime="0.00" timeLoss="6.68" rerouteNo="0" devices="tripinfo_294" vType="DEFAULT_VEHTYPE" speedFactor="1.03" vaporized=""/>
    <tripinfo id="335" depart="17.00" departLane="790_4way_408to4way_407_0" departPos="5.10" departSpeed="0.00" departDelay="0.25" arrival="70.00" arrivalLane="842_4way_432to4way_457_0" arrivalPos="85.60" arrivalSpeed="5.88" duration="53.00" routeLength="275.13" waitingTime="19.00" waitingCount="1" stopTime="0.00" timeLoss="30.30" rerouteNo="0" devices="tripinfo_335" vType="DEFAULT_VEHTYPE" speedFactor="0.90" vaporized=""/>
    <tripinfo id="861" depart="44.00" departLane="973_4way_502to4way_501_0" departPos="5.10" departSpeed="0.00" departDelay="0.95" arrival="70.00" arrivalLane="113_3way_500to3way_525_0" arrivalPos="85.60" arrivalSpeed="12.88" duration="26.00" routeLength="275.13" waitingTime="0.00" waitingCount="0" stopTime="0.00" timeLoss="4.99" rerouteNo="0" devices="tripinfo_861" vType="DEFAULT_VEHTYPE" speedFactor="0.99" vaporized=""/>
    <tripinfo id="1024" depart="52.00" departLane="54_3way_224to4way_223_0" departPos="5.10" departSpeed="0.00" departDelay="0.80" arrival="70.00" arrivalLane="54_3way_224to4way_223_0" arrivalPos="85.60" arrivalSpeed="5.55" duration="18.00" routeLength="80.50" waitingTime="4.00" waitingCount="1" stopTime="0.00" timeLoss="11.32" rerouteNo="0" devices="tripinfo_1024" vType="DEFAULT_VEHTYPE" speedFactor="0.89" vaporized=""/>
    <tripinfo id="253" depart="13.00" departLane="41_3way_224to3way_199_0" departPos="5.10" departSpeed="0.00" departDelay="0.35" arrival="71.00" arrivalLane="381_4way_196to4way_195_0" arrivalPos="85.60" arrivalSpeed="5.10" duration="58.00" routeLength="475.13" waitingTime="11.00" waitingCount="1" stopTime="0.00" timeLoss="22.27" rerouteNo="0" devices="tripinfo_253" vType="DEFAULT_VEHTYPE" speedFactor="0.99" vaporized=""/>
    <tripinfo id="438" depart="22.00" departLane="740_4way_381to4way_406_0" departPos="5.10" departSpeed="0.00" departDelay="0.10" arrival="71.00" arrivalLane="790_4way_407to4way_408_0" arrivalPos="85.60" arrivalSpeed="5.31" duration="49.00" routeLength="275.13" waitingTime="16.00" waitingCount="1" stopTime="0.00" timeLoss="26.63" rerouteNo="0" devices="tripinfo_438" vType="DEFAULT_VEHTYPE" speedFactor="0.92" vaporized=""/>
    <tripinfo id="784" depart="40.00" departLane="844_4way_458to4way_433_0" departPos="5.10" departSpeed="0.00" departDelay="0.80" arrival="73.00" arrivalLane="788_4way_407to4way_406_0" arrivalPos="85.60" arrivalSpeed="13.62" duration="33.00" routeLength="375.13" waitingTime="0.00" waitingCount="0" stopTime="0.00" timeLoss="5.73" rerouteNo="0" devices="tripinfo_784" vType="DEFAULT_VEHTYPE" speedFactor="1.04" vaporized=""/>
    <tripinfo id="972" depart="54.00" departLane="109_3way_6to3way_5_0" departPos="5.10" departSpeed="0.00" departDelay="5.40" arrival="73.00" arrivalLane="89_3way_5to3way_4_0" arrivalPos="85.60" arrivalSpeed="9.47" duration="19.00" routeLength="180.50" waitingTime="0.00" waitingCount="0" stopTime="0.00" timeLoss="6.82" rerouteNo="0" devices="tripinfo_972" vType="DEFAULT_VEHTYPE" speedFactor="1.12" vaporized=""/>
    <tripinfo id="1258" depart="63.00" departLane="785_4way_429to4way_404_0" departPos="5.10" departSpeed="0.00" departDelay="0.10" arrival="73.00" arrivalLane="785_4way_429to4way_404_0" arrivalPos="85.60" arrivalSpeed="11.74" duration="10.00" routeLength="80.50" waitingTime="0.00" waitingCount="0" stopTime="0.00" timeLoss="3.17" rerouteNo="0" devices="tripinfo_1258" vType="DEFAULT_VEHTYPE" speedFactor="0.94" vaporized=""/>
    <tripinfo id="479" depart="24.00" departLane="876_4way_46to4way_45_0" departPos="5.10" departSpeed="0.00" departDelay="0.05" arrival="76.00" arrivalLane="877_4way_45to4way_70_0" arrivalPos="85.60" arrivalSpeed="13.64" duration="52.00" routeLength="175.13" waitingTime="29.00" waitingCount="1" stopTime="0.00" timeLoss="39.36" rerouteNo="0" devices="tripinfo_479" vType="DEFAULT_VEHTYPE" speedFactor="1.04" vaporized=""/>
    <tripinfo id="692" depart="35.00" departLane="650_4way_361to4way_336_0" departPos="5.10" departSpeed="0.00" departDelay="0.40" arrival="76.00" arrivalLane="647_4way_336to4way_335_0" arrivalPos="85.60" arrivalSpeed="15.27" duration="41.00" routeLength="175.13" waitingTime="20.00" waitingCount="1" stopTime="0.00" timeLoss="29.23" rerouteNo="0" devices="tripinfo_692" vType="DEFAULT_VEHTYPE" speedFactor="1.13" vaporized=""/>
    <tripinfo id="115" depart="6.00" departLane="881_4way_452to4way_477_0" departPos="5.10" departSpeed="0.00" departDelay="0.25" arrival="77.00" arrivalLane="975_4way_502to4way_503_0" arrivalPos="85.60" arrivalSpeed="12.30" duration="71.00" routeLength="275.13" waitingTime="41.00" waitingCount="1" stopTime="0.00" timeLoss="48.60" rerouteNo="0" devices="tripinfo_115" vType="DEFAULT_VEHTYPE" speedFactor="0.92" vaporized=""/>
    <tripinfo id="128" depart="7.00" departLane="900_4way_462to4way_461_0" departPos="5.10" departSpeed="0.00" departDelay="0.60" arrival="77.00" arrivalLane="996_4way_511to4way_536_0" arrivalPos="85.60" arrivalSpeed="13.07" duration="70.00" routeLength="375.13" waitingTime="30.00" waitingCount="1" stopTime="0.00" timeLoss="42.61" rerouteNo="0" devices="tripinfo_128" vType="DEFAULT_VEHTYPE" speedFactor="1.02" vaporized=""/>
    <tripinfo id="178" depart="9.00" departLane="74_3way_300to4way_301_0" departPos="5.10" departSpeed="0.00" departDelay="0.10" arrival="77.00" arrivalLane="582_4way_303to4way_304_0" arrivalPos="85.60" arrivalSpeed="14.78" duration="68.00" routeLength="380.50" waitingTime="32.00" waitingCount="1" stopTime="0.00" timeLoss="41.92" rerouteNo="0" devices="tripinfo_178" vType="DEFAULT_VEHTYPE" speedFactor="1.07" vaporized=""/>
    <tripinfo id="229" depart="12.00" departLane="921_4way_495to4way_470_0" departPos="5.10" departSpeed="0.00" departDelay="0.55" arrival="77.00" arrivalLane="861_4way_442to4way_441_0" arrivalPos="85.60" arrivalSpeed="9.59" duration="65.00" routeLength="575.13" waitingTime="0.00" waitingCount="0" stopTime="0.00" timeLoss="7.40" rerouteNo="0" devices="tripinfo_229" vType="DEFAULT_VEHTYPE" speedFactor="0.75" vaporized=""/>
    <tripinfo id="493" depart="25.00" departLane="617_4way_319to4way_344_0" departPos="5.10" departSpeed="0.00" departDelay="0.35" arrival="77.00" arrivalLane="716_4way_369to4way_370_0" arrivalPos="85.60" arrivalSpeed="12.61" duration="52.00" routeLength="275.13" waitingTime="22.00" waitingCount="1" stopTime="0.00" timeLoss="29.87" rerouteNo="0" devices="tripinfo_493" vType="DEFAULT_VEHTYPE" speedFactor="0.94" vaporized=""/>
    <tripinfo id="575" depart="29.00" departLane="1188_4way_89to4way_90_0" departPos="5.10" departSpeed="0.00" departDelay="0.25" arrival="77.00" arrivalLane="30_4way_41to3way_16_0" arrivalPos="85.60" arrivalSpeed="12.94" duration="48.00" routeLength="475.13" waitingTime="1.00" waitingCount="1" stopTime="0.00" timeLoss="13.02" rerouteNo="0" devices="tripinfo_575" vType="DEFAULT_VEHTYPE" speedFactor="1.00" vaporized=""/>
    <tripinfo id="906" depart="46.00" departLane="1020_4way_547to4way_522_0" departPos="5.10" departSpeed="0.00" departDelay="0.70" arrival="77.00" arrivalLane="971_4way_522to4way_497_0" arrivalPos="85.60" arrivalSpeed="10.44" duration="31.00" routeLength="180.50" waitingTime="8.00" waitingCount="1" stopTime="0.00" timeLoss="16.75" rerouteNo="0" devices="tripinfo_906" vType="DEFAULT_VEHTYPE" speedFactor="0.95" vaporized=""/>
    <tripinfo id="1340" depart="67.00" departLane="934_4way_504to4way_479_0" departPos="5.10" departSpeed="0.00" departDelay="0.00" arrival="77.00" arrivalLane="934_4way_504to4way_479_0" arrivalPos="85.60" arrivalSpeed="12.75" duration="10.00" routeLength="80.50" waitingTime="0.00" waitingCount="0" stopTime="0.00" timeLoss="3.46" rerouteNo="0" devices="tripinfo_1340" vType="DEFAULT_VEHTYPE" speedFactor="0.95" vaporized=""/>
    <tripinfo id="332" depart="17.00" departLane="941_4way_482to4way_507_0" departPos="5.10" departSpeed="0.00" departDelay="0.40" arrival="78.00" arrivalLane="986_4way_507to4way_532_0" arrivalPos="85.60" arrivalSpeed="10.82" duration="61.00" routeLength="180.50" waitingTime="37.00" waitingCount="1" stopTime="0.00" timeLoss="44.82" rerouteNo="0" devices="tripinfo_332" vType="DEFAULT_VEHTYPE" speedFactor="0.83" vaporized=""/>
    <tripinfo id="351" depart="18.00" departLane="163_3way_617to3way_618_0" departPos="5.10" departSpeed="0.00" departDelay="0.45" arrival="78.00" arrivalLane="165_3way_618to3way_619_0" arrivalPos="85.60" arrivalSpeed="11.16" duration="60.00" routeLength="180.50" waitingTime="37.00" waitingCount="1" stopTime="0.00" timeLoss="43.95" rerouteNo="0" devices="tripinfo_351" vType="DEFAULT_VEHTYPE" speedFactor="0.85" vaporized=""/>
    <tripinfo id="726" depart="37.00" departLane="920_4way_471to4way_470_0" departPos="5.10" departSpeed="0.00" departDelay="0.70" arrival="78.00" arrivalLane="921_4way_470to4way_495_0" arrivalPos="85.60" arrivalSpeed="11.59" duration="41.00" routeLength="175.13" waitingTime="17.00" waitingCount="1" stopTime="0.00" timeLoss="24.65" rerouteNo="0" devices="tripinfo_726" vType="DEFAULT_VEHTYPE" speedFactor="0.85" vaporized=""/>
    <tripinfo id="878" depart="44.00" departLane="1066_4way_547to4way_546_0" departPos="5.10" departSpeed="0.00" departDelay="0.10" arrival="78.00" arrivalLane="1064_4way_546to4way_545_0" arrivalPos="85.60" arrivalSpeed="15.67" duration="34.00" routeLength="180.50" waitingTime="12.00" waitingCount="1" stopTime="0.00" timeLoss="22.51" rerouteNo="0" devices="tripinfo_878" vType="DEFAULT_VEHTYPE" speedFactor="1.15" vaporized=""/>
    <tripinfo id="1377" depart="69.00" departLane="153_3way_612to3way_613_0" departPos="5.10" departSpeed="0.00" departDelay="0.15" arrival="78.00" arrivalLane="153_3way_612to3way_613_0" arrivalPos="85.60" arrivalSpeed="14.19" duration="9.00" routeLength="80.50" waitingTime="0.00" waitingCount="0" stopTime="0.00" timeLoss="3.41" rerouteNo="0" devices="tripinfo_1377" vType="DEFAULT_VEHTYPE" speedFactor="1.09" vaporized=""/>
    <tripinfo id="637" depart="32.00" departLane="286_4way_142to4way_167_0" departPos="5.10" departSpeed="0.00" departDelay="0.15" arrival="79.00" arrivalLane="330_4way_167to4way_168_0" arrivalPos="85.60" arrivalSpeed="12.18" duration="47.00" routeLength="175.13" waitingTime="25.00" waitingCount="1" stopTime="0.00" timeLoss="32.53" rerouteNo="0" devices="tripinfo_637" vType="DEFAULT_VEHTYPE" speedFactor="0.94" vaporized=""/>
    <tripinfo id="679" depart="34.00" departLane="709_4way_365to4way_390_0" departPos="5.10" departSpeed="0.00" departDelay="0.05" arrival="79.00" arrivalLane="861_4way_441to4way_442_0" arrivalPos="85.60" arrivalSpeed="15.56" duration="45.00" routeLength="475.13" waitingTime="1.00" waitingCount="1" stopTime="0.00" timeLoss="14.23" rerouteNo="0" devices="tripinfo_679" vType="DEFAULT_VEHTYPE" speedFactor="1.16" vaporized=""/>
    <tripinfo id="1015" depart="51.00" departLane="61_3way_50to3way_25_0" departPos="5.10" departSpeed="0.00" departDelay="0.25" arrival="84.00" arrivalLane="2_3way_25to3way_1_0" arrivalPos="188.80" arrivalSpeed="13.77" duration="33.00" routeLength="283.70" waitingTime="3.00" waitingCount="1" stopTime="0.00" timeLoss="12.87" rerouteNo="0" devices="tripinfo_1015" vType="DEFAULT_VEHTYPE" speedFactor="1.06" vaporized=""/>
    <tripinfo id="18" depart="1.00" departLane="754_4way_413to4way_388_0" departPos="5.10" departSpeed="0.00" departDelay="0.10" arrival="85.00" arrivalLane="654_4way_363to4way_338_0" arrivalPos="85.60" arrivalSpeed="13.16" duration="84.00" routeLength="280.50" waitingTime="54.00" waitingCount="1" stopTime="0.00" timeLoss="62.67" rerouteNo="0" devices="tripinfo_18" vType="DEFAULT_VEHTYPE" speedFactor="0.96" vaporized=""/>
    <tripinfo id="888" depart="45.00" departLane="786_4way_405to4way_406_0" departPos="5.10" departSpeed="0.00" departDelay="0.60" arrival="85.00" arrivalLane="790_4way_407to4way_408_0" arrivalPos="85.60" arrivalSpeed="13.65" duration="40.00" routeLength="280.50" waitingTime="8.00" waitingCount="1" stopTime="0.00" timeLoss="19.03" rerouteNo="0" devices="tripinfo_888" vType="DEFAULT_VEHTYPE" speedFactor="0.99" vaporized=""/>
    <tripinfo id="212" depart="11.00" departLane="316_4way_160to4way_161_0" departPos="5.10" departSpeed="0.00" departDelay="0.40" arrival="87.00" arrivalLane="322_4way_163to4way_164_0" arrivalPos="85.60" arrivalSpeed="13.37" duration="76.00" routeLength="380.50" waitingTime="38.00" waitingCount="1" stopTime="0.00" timeLoss="47.90" rerouteNo="0" devices="tripinfo_212" vType="DEFAULT_VEHTYPE" speedFactor="1.00" vaporized=""/>
    <tripinfo id="761" depart="39.00" departLane="796_4way_42to4way_41_0" departPos="5.10" departSpeed="0.00" departDelay="0.95" arrival="87.00" arrivalLane="718_4way_38to4way_37_0" arrivalPos="85.60" arrivalSpeed="14.20" duration="48.00" routeLength="480.50" waitingTime="3.00" waitingCount="1" stopTime="0.00" timeLoss="15.91" rerouteNo="0" devices="tripinfo_761" vType="DEFAULT_VEHTYPE" speedFactor="1.08" vaporized=""/>
    <tripinfo id="388" depart="20.00" departLane="362_4way_210to4way_185_0" departPos="5.10" departSpeed="0.00" departDelay="0.60" arrival="88.00" arrivalLane="314_4way_160to4way_159_0" arrivalPos="85.60" arrivalSpeed="12.98" duration="68.00" routeLength="275.13" waitingTime="36.00" waitingCount="1" stopTime="0.00" timeLoss="45.62" rerouteNo="0" devices="tripinfo_388" vType="DEFAULT_VEHTYPE" speedFactor="0.95" vaporized=""/>
    <tripinfo id="809" depart="41.00" departLane="126_3way_575to4way_576_0" departPos="5.10" departSpeed="0.00" departDelay="0.55" arrival="88.00" arrivalLane="1023_4way_551to4way_526_0" arrivalPos="85.60" arrivalSpeed="12.02" duration="47.00" routeLength="275.13" waitingTime="15.00" waitingCount="1" stopTime="0.00" timeLoss="24.13" rerouteNo="0" devices="tripinfo_809" vType="DEFAULT_VEHTYPE" speedFactor="0.93" vaporized=""/>
    <tripinfo id="59" depart="3.00" departLane="860_4way_440to4way_465_0" departPos="5.10" departSpeed="0.00" departDelay="0.05" arrival="90.00" arrivalLane="964_4way_494to4way_495_0" arrivalPos="85.60" arrivalSpeed="13.53" duration="87.00" routeLength="675.13" waitingTime="24.00" waitingCount="1" stopTime="0.00" timeLoss="38.75" rerouteNo="0" devices="tripinfo_59" vType="DEFAULT_VEHTYPE" speedFactor="1.03" vaporized=""/>
    <tripinfo id="352" depart="18.00" departLane="144_3way_607to4way_582_0" departPos="5.10" departSpeed="0.00" departDelay="0.40" arrival="90.00" arrivalLane="1123_4way_578to4way_577_0" arrivalPos="85.60" arrivalSpeed="14.80" duration="72.00" routeLength="575.13" waitingTime="21.00" waitingCount="1" stopTime="0.00" timeLoss="33.57" rerouteNo="0" devices="tripinfo_352" vType="DEFAULT_VEHTYPE" speedFactor="1.10" vaporized=""/>
    <tripinfo id="381" depart="20.00" departLane="1091_4way_56to4way_57_0" departPos="5.10" departSpeed="0.00" departDelay="0.95" arrival="90.00" arrivalLane="658_4way_59to4way_34_0" arrivalPos="85.60" arrivalSpeed="16.51" duration="70.00" routeLength="375.13" waitingTime="35.00" waitingCount="1" stopTime="0.00" timeLoss="47.36" rerouteNo="0" devices="tripinfo_381" vType="DEFAULT_VEHTYPE" speedFactor="1.27" vaporized=""/>
    <tripinfo id="554" depart="28.00" departLane="987_4way_508to4way_509_0" departPos="5.10" departSpeed="0.00" departDelay="0.30" arrival="90.00" arrivalLane="895_4way_484to4way_459_0" arrivalPos="85.60" arrivalSpeed="12.26" duration="62.00" routeLength="275.13" waitingTime="29.00" waitingCount="1" stopTime="0.00" timeLoss="40.58" rerouteNo="0" devices="tripinfo_554" vType="DEFAULT_VEHTYPE" speedFactor="0.97" vaporized=""/>
    <tripinfo id="956" depart="48.00" departLane="587_4way_305to4way_330_0" departPos="5.10" departSpeed="0.00" departDelay="0.20" arrival="93.00" arrivalLane="737_4way_380to4way_381_0" arrivalPos="85.60" arrivalSpeed="12.92" duration="45.00" routeLength="375.13" waitingTime="4.00" waitingCount="1" stopTime="0.00" timeLoss="15.00" rerouteNo="0" devices="tripinfo_956" vType="DEFAULT_VEHTYPE" speedFactor="0.94" vaporized=""/>
    <tripinfo id="176" depart="9.00" departLane="848_4way_460to4way_435_0" departPos="5.10" departSpeed="0.00" departDelay="0.20" arrival="94.00" arrivalLane="743_4way_384to4way_383_0" arrivalPos="85.60" arrivalSpeed="12.45" duration="85.00" routeLength="475.13" waitingTime="37.00" waitingCount="1" stopTime="0.00" timeLoss="49.33" rerouteNo="0" devices="tripinfo_176" vType="DEFAULT_VEHTYPE" speedFactor="0.97" vaporized=""/>
    <tripinfo id="1678" depart="84.00" departLane="307_4way_155to4way_180_0" departPos="5.10" departSpeed="0.00" departDelay="0.10" arrival="94.00" arrivalLane="307_4way_155to4way_180_0" arrivalPos="85.60" arrivalSpeed="12.23" duration="10.00" routeLength="80.50" waitingTime="0.00" waitingCount="0" stopTime="0.00" timeLoss="3.88" rerouteNo="0" devices="tripinfo_1678" vType="DEFAULT_VEHTYPE" speedFactor="0.97" vaporized=""/>
    <tripinfo id="156" depart="8.00" departLane="157_3way_614to3way_615_0" departPos="5.10" departSpeed="0.00" departDelay="0.20" arrival="96.00" arrivalLane="167_3way_619to3way_620_0" arrivalPos="85.60" arrivalSpeed="11.73" duration="88.00" routeLength="580.50" waitingTime="31.00" waitingCount="1" stopTime="0.00" timeLoss="42.03" rerouteNo="0" devices="tripinfo_156" vType="DEFAULT_VEHTYPE" speedFactor="0.91" vaporized=""/>
    <tripinfo id="298" depart="15.00" departLane="843_4way_434to4way_433_0" departPos="5.10" departSpeed="0.00" departDelay="0.10" arrival="96.00" arrivalLane="840_4way_431to4way_456_0" arrivalPos="85.60" arrivalSpeed="11.96" duration="81.00" routeLength="375.13" waitingTime="40.00" waitingCount="1" stopTime="0.00" timeLoss="50.94" rerouteNo="0" devices="tripinfo_298" vType="DEFAULT_VEHTYPE" speedFactor="0.92" vaporized=""/>
    <tripinfo id="367" depart="19.00" departLane="462_4way_265to4way_240_0" departPos="5.10" departSpeed="0.00" departDelay="0.65" arrival="96.00" arrivalLane="451_4way_236to4way_235_0" arrivalPos="85.60" arrivalSpeed="14.65" duration="77.00" routeLength="575.13" waitingTime="28.00" waitingCount="1" stopTime="0.00" timeLoss="40.11" rerouteNo="0" devices="tripinfo_367" vType="DEFAULT_VEHTYPE" speedFactor="1.14" vaporized=""/>
    <tripinfo id="1750" depart="88.00" departLane="34_3way_174to4way_173_0" departPos="5.10" departSpeed="0.00" departDelay="0.50" arrival="97.00" arrivalLane="34_3way_174to4way_173_0" arrivalPos="85.60" arrivalSpeed="15.86" duration="9.00" routeLength="80.50" waitingTime="0.00" waitingCount="0" stopTime="0.00" timeLoss="3.51" rerouteNo="0" devices="tripinfo_1750" vType="DEFAULT_VEHTYPE" speedFactor="1.14" vaporized=""/>
    <tripinfo id="857" depart="44.00" departLane="530_4way_302to4way_277_0" departPos="5.10" departSpeed="0.00" departDelay="1.15" arrival="102.00" arrivalLane="253_4way_127to4way_126_0" arrivalPos="85.60" arrivalSpeed="14.97" duration="58.00" routeLength="775.13" waitingTime="0.00" waitingCount="0" stopTime="0.00" timeLoss="6.88" rerouteNo="0" devices="tripinfo_857" vType="DEFAULT_VEHTYPE" speedFactor="1.11" vaporized=""/>
    <tripinfo id="921" depart="47.00" departLane="527_4way_277to4way_276_0" departPos="5.10" departSpeed="0.00" departDelay="0.95" arrival="102.00" arrivalLane="779_4way_401to4way_426_0" arrivalPos="85.60" arrivalSpeed="15.14" duration="55.00" routeLength="675.13" waitingTime="0.00" waitingCount="0" stopTime="0.00" timeLoss="11.58" rerouteNo="0" devices="tripinfo_921" vType="DEFAULT_VEHTYPE" speedFactor="1.15" vaporized=""/>
    <tripinfo id="1594" depart="80.00" departLane="582_4way_303to4way_304_0" departPos="5.10" departSpeed="0.00" departDelay="0.30" arrival="102.00" arrivalLane="586_4way_305to4way_306_0" arrivalPos="85.60" arrivalSpeed="16.77" duration="22.00" routeLength="280.50" waitingTime="0.00" waitingCount="0" stopTime="0.00" timeLoss="6.00" rerouteNo="0" devices="tripinfo_1594" vType="DEFAULT_VEHTYPE" speedFactor="1.30" vaporized=""/>
    <tripinfo id="89" depart="5.00" departLane="39_3way_20to3way_19_0" departPos="5.10" departSpeed="0.00" departDelay="0.55" arrival="104.00" arrivalLane="30_3way_16to4way_41_0" arrivalPos="85.60" arrivalSpeed="12.61" duration="99.00" routeLength="475.13" waitingTime="51.00" waitingCount="1" stopTime="0.00" timeLoss="61.06" rerouteNo="0" devices="tripinfo_89" vType="DEFAULT_VEHTYPE" speedFactor="0.93" vaporized=""/>
    <tripinfo id="490" depart="25.00" departLane="915_4way_468to4way_493_0" departPos="5.10" departSpeed="0.00" departDelay="0.50" arrival="104.00" arrivalLane="1064_4way_545to4way_546_0" arrivalPos="85.60" arrivalSpeed="11.84" duration="79.00" routeLength="575.13" waitingTime="21.00" waitingCount="1" stopTime="0.00" timeLoss="32.44" rerouteNo="0" devices="tripinfo_490" vType="DEFAULT_VEHTYPE" speedFactor="0.91" vaporized=""/>
    <tripinfo id="304" depart="16.00" departLane="1083_4way_556to4way_557_0" departPos="5.10" departSpeed="0.00" departDelay="0.80" arrival="105.00" arrivalLane="1043_4way_560to4way_535_0" arrivalPos="85.60" arrivalSpeed="13.84" duration="89.00" routeLength="475.13" waitingTime="41.00" waitingCount="1" stopTime="0.00" timeLoss="53.48" rerouteNo="0" devices="tripinfo_304" vType="DEFAULT_VEHTYPE" speedFactor="1.00" vaporized=""/>
    <tripinfo id="817" depart="41.00" departLane="495_4way_284to4way_259_0" departPos="5.10" departSpeed="0.00" departDelay="0.15" arrival="106.00" arrivalLane="439_4way_230to4way_229_0" arrivalPos="85.60" arrivalSpeed="13.10" duration="65.00" routeLength="675.13" waitingTime="7.00" waitingCount="1" stopTime="0.00" timeLoss="17.20" rerouteNo="0" devices="tripinfo_817" vType="DEFAULT_VEHTYPE" speedFactor="1.04" vaporized=""/>
    <tripinfo id="1951" depart="98.00" departLane="1033_4way_530to4way_555_0" departPos="5.10" departSpeed="0.00" departDelay="0.45" arrival="108.00" arrivalLane="1033_4way_530to4way_555_0" arrivalPos="85.60" arrivalSpeed="13.24" duration="10.00" routeLength="80.50" waitingTime="0.00" waitingCount="0" stopTime="0.00" timeLoss="3.56" rerouteNo="0" devices="tripinfo_1951" vType="DEFAULT_VEHTYPE" speedFactor="0.99" vaporized=""/>
    <tripinfo id="1985" depart="100.00" departLane="648_4way_360to4way_335_0" departPos="5.10" departSpeed="0.00" departDelay="0.75" arrival="110.00" arrivalLane="648_4way_360to4way_335_0" arrivalPos="85.60" arrivalSpeed="14.53" duration="10.00" routeLength="80.50" waitingTime="0.00" waitingCount="0" stopTime="0.00" timeLoss="3.62" rerouteNo="0" devices="tripinfo_1985" vType="DEFAULT_VEHTYPE" speedFactor="1.06" vaporized=""/>
    <tripinfo id="1988" depart="100.00" departLane="100_4way_451to3way_450_0" departPos="5.10" departSpeed="0.00" departDelay="0.60" arrival="110.00" arrivalLane="100_4way_451to3way_450_0" arrivalPos="85.60" arrivalSpeed="13.73" duration="10.00" routeLength="80.50" waitingTime="0.00" waitingCount="0" stopTime="0.00" timeLoss="3.75" rerouteNo="0" devices="tripinfo_1988" vType="DEFAULT_VEHTYPE" speedFactor="1.07" vaporized=""/>
    <tripinfo id="1078" depart="54.00" departLane="582_4way_304to4way_303_0" departPos="5.10" departSpeed="0.00" departDelay="0.10" arrival="111.00" arrivalLane="783_4way_403to4way_428_0" arrivalPos="85.60" arrivalSpeed="11.90" duration="57.00" routeLength="575.13" waitingTime="0.00" waitingCount="0" stopTime="0.00" timeLoss="10.22" rerouteNo="0" devices="tripinfo_1078" vType="DEFAULT_VEHTYPE" speedFactor="0.91" vaporized=""/>
    <tripinfo id="1280" depart="64.00" departLane="584_4way_305to4way_304_0" departPos="5.10" departSpeed="0.00" departDelay="0.00" arrival="111.00" arrivalLane="732_4way_378to4way_403_0" arrivalPos="85.60" arrivalSpeed="14.52" duration="47.00" routeLength="575.13" waitingTime="0.00" waitingCount="0" stopTime="0.00" timeLoss="7.65" rerouteNo="0" devices="tripinfo_1280" vType="DEFAULT_VEHTYPE" speedFactor="1.09" vaporized=""/>
    <tripinfo id="500" depart="25.00" departLane="176_3way_7to3way_8_0" departPos="5.10" departSpeed="0.00" departDelay="0.00" arrival="112.00" arrivalLane="20_3way_13to4way_38_0" arrivalPos="85.60" arrivalSpeed="12.10" duration="87.00" routeLength="680.30" waitingTime="21.00" waitingCount="1" stopTime="0.00" timeLoss="32.76" rerouteNo="0" devices="tripinfo_500" vType="DEFAULT_VEHTYPE" speedFactor="0.92" vaporized=""/>
    <tripinfo id="1636" depart="83.00" departLane="1105_4way_567to4way_566_0" departPos="5.10" departSpeed="0.00" departDelay="1.20" arrival="116.00" arrivalLane="1099_4way_564to4way_563_0" arrivalPos="85.60" arrivalSpeed="13.03" duration="33.00" routeLength="380.50" waitingTime="0.00" waitingCount="0" stopTime="0.00" timeLoss="5.87" rerouteNo="0" devices="tripinfo_1636" vType="DEFAULT_VEHTYPE" speedFactor="1.03" vaporized=""/>