<?xml version="1.0" encoding="UTF-8"?>

<!-- generated on 2023-03-20 09:21:31 by Eclipse SUMO sumo Version 1.12.0
<configuration xmlns:xsi="http://www.w3.org/2001/XMLSchema-instance" xsi:noNamespaceSchemaLocation="http://sumo.dlr.de/xsd/sumoConfiguration.xsd">

    <input>
        <net-file value="../../data_generation_seed5/sq.net.xml"/>
        <route-files value="../../data_generation_seed5/sq.rou.xml"/>
    </input>

    <output>
        <tripinfo-output value="tripinfo.xml"/>
        <statistic-output value="statistic.xml"/>
    </output>

    <time>
        <begin value="0"/>
        <end value="3600"/>
    </time>

    <processing>
        <time-to-teleport value="-1"/>
    </processing>

    <traci_server>
        <remote-port value="37921"/>
    </traci_server>

    <random_number>
        <seed value="1395"/>
    </random_number>

    <gui_only>
        <gui-settings-file value="../../data_generation_seed5/view_HY_0402.xml"/>
    </gui_only>

</configuration>
-->

<tripinfos xmlns:xsi="http://www.w3.org/2001/XMLSchema-instance" xsi:noNamespaceSchemaLocation="http://sumo.dlr.de/xsd/tripinfo_file.xsd">
    <tripinfo id="18" depart="7.00" departLane="102_4way_44to4way_34_0" departPos="5.10" departSpeed="0.00" departDelay="2.86" arrival="25.00" arrivalLane="102_4way_44to4way_34_0" arrivalPos="185.60" arrivalSpeed="12.69" duration="18.00" routeLength="180.50" waitingTime="0.00" waitingCount="0" stopTime="0.00" timeLoss="3.53" rerouteNo="0" devices="tripinfo_18" vType="DEFAULT_VEHTYPE" speedFactor="0.96" vaporized=""/>
    <tripinfo id="0" depart="0.00" departLane="131_4way_55to4way_54_0" departPos="5.10" departSpeed="0.00" departDelay="0.00" arrival="33.00" arrivalLane="129_4way_54to4way_53_0" arrivalPos="185.60" arrivalSpeed="13.46" duration="33.00" routeLength="380.50" waitingTime="0.00" waitingCount="0" stopTime="0.00" timeLoss="4.96" rerouteNo="0" devices="tripinfo_0" vType="DEFAULT_VEHTYPE" speedFactor="1.00" vaporized=""/>
    <tripinfo id="9" depart="3.00" departLane="108_4way_47to4way_37_0" departPos="5.10" departSpeed="0.00" departDelay="0.93" arrival="40.00" arrivalLane="105_4way_37to4way_36_0" arrivalPos="185.60" arrivalSpeed="11.55" duration="37.00" routeLength="375.13" waitingTime="0.00" waitingCount="0" stopTime="0.00" timeLoss="6.36" rerouteNo="0" devices="tripinfo_9" vType="DEFAULT_VEHTYPE" speedFactor="0.91" vaporized=""/>
    <tripinfo id="20" depart="5.00" departLane="80_4way_22to4way_21_0" departPos="5.10" departSpeed="0.00" departDelay="0.40" arrival="47.00" arrivalLane="81_4way_21to4way_31_0" arrivalPos="185.60" arrivalSpeed="12.01" duration="42.00" routeLength="375.13" waitingTime="1.00" waitingCount="1" stopTime="0.00" timeLoss="10.58" rerouteNo="0" devices="tripinfo_20" vType="DEFAULT_VEHTYPE" speedFactor="0.89" vaporized=""/>
    <tripinfo id="72" depart="17.00" departLane="8_4way_18to3way_19_0" departPos="5.10" departSpeed="0.00" departDelay="0.44" arrival="48.00" arrivalLane="6_3way_19to3way_29_0" arrivalPos="185.60" arrivalSpeed="15.37" duration="31.00" routeLength="380.29" waitingTime="0.00" waitingCount="0" stopTime="0.00" timeLoss="5.62" rerouteNo="0" devices="tripinfo_72" vType="DEFAULT_VEHTYPE" speedFactor="1.15" vaporized=""/>
    <tripinfo id="10" depart="3.00" departLane="136_4way_56to4way_66_0" departPos="5.10" departSpeed="0.00" departDelay="0.70" arrival="50.00" arrivalLane="152_4way_67to4way_68_0" arrivalPos="185.60" arrivalSpeed="13.36" duration="47.00" routeLength="575.13" waitingTime="0.00" waitingCount="0" stopTime="0.00" timeLoss="6.58" rerouteNo="0" devices="tripinfo_10" vType="DEFAULT_VEHTYPE" speedFactor="1.04" vaporized=""/>
    <tripinfo id="7" depart="2.00" departLane="7_3way_19to3way_8_0" departPos="5.10" departSpeed="0.00" departDelay="0.39" arrival="51.00" arrivalLane="39_3way_8to3way_7_0" arrivalPos="185.60" arrivalSpeed="12.57" duration="49.00" routeLength="577.30" waitingTime="0.00" waitingCount="0" stopTime="0.00" timeLoss="4.67" rerouteNo="0" devices="tripinfo_7" vType="DEFAULT_VEHTYPE" speedFactor="0.95" vaporized=""/>
    <tripinfo id="148" depart="35.00" departLane="139_4way_58to4way_68_0" departPos="5.10" departSpeed="0.00" departDelay="0.96" arrival="52.00" arrivalLane="139_4way_58to4way_68_0" arrivalPos="185.60" arrivalSpeed="14.23" duration="17.00" routeLength="180.50" waitingTime="0.00" waitingCount="0" stopTime="0.00" timeLoss="4.00" rerouteNo="0" devices="tripinfo_148" vType="DEFAULT_VEHTYPE" speedFactor="1.07" vaporized=""/>
    <tripinfo id="23" depart="6.00" departLane="81_4way_31to4way_21_0" departPos="5.10" departSpeed="0.00" departDelay="0.71" arrival="54.00" arrivalLane="12_4way_21to3way_20_0" arrivalPos="185.60" arrivalSpeed="11.53" duration="48.00" routeLength="375.13" waitingTime="7.00" waitingCount="1" stopTime="0.00" timeLoss="16.53" rerouteNo="0" devices="tripinfo_23" vType="DEFAULT_VEHTYPE" speedFactor="0.87" vaporized=""/>
    <tripinfo id="162" depart="38.00" departLane="89_4way_35to4way_25_0" departPos="5.10" departSpeed="0.00" departDelay="0.74" arrival="55.00" arrivalLane="89_4way_35to4way_25_0" arrivalPos="185.60" arrivalSpeed="12.99" duration="17.00" routeLength="180.50" waitingTime="0.00" waitingCount="0" stopTime="0.00" timeLoss="3.50" rerouteNo="0" devices="tripinfo_162" vType="DEFAULT_VEHTYPE" speedFactor="0.96" vaporized=""/>
    <tripinfo id="163" depart="38.00" departLane="30_4way_51to3way_50_0" departPos="5.10" departSpeed="0.00" departDelay="0.51" arrival="56.00" arrivalLane="30_4way_51to3way_50_0" arrivalPos="185.60" arrivalSpeed="12.57" duration="18.00" routeLength="180.50" waitingTime="0.00" waitingCount="0" stopTime="0.00" timeLoss="3.79" rerouteNo="0" devices="tripinfo_163" vType="DEFAULT_VEHTYPE" speedFactor="0.94" vaporized=""/>
    <tripinfo id="90" depart="21.00" departLane="52_3way_92to3way_93_0" departPos="5.10" departSpeed="0.00" departDelay="0.30" arrival="57.00" arrivalLane="55_3way_93to4way_83_0" arrivalPos="185.60" arrivalSpeed="12.13" duration="36.00" routeLength="375.13" waitingTime="0.00" waitingCount="0" stopTime="0.00" timeLoss="6.75" rerouteNo="0" devices="tripinfo_90" vType="DEFAULT_VEHTYPE" speedFactor="0.95" vaporized=""/>
    <tripinfo id="33" depart="11.00" departLane="14_3way_29to4way_28_0" departPos="5.10" departSpeed="0.00" departDelay="3.41" arrival="60.00" arrivalLane="78_4way_27to4way_17_0" arrivalPos="185.60" arrivalSpeed="13.42" duration="49.00" routeLength="580.30" waitingTime="0.00" waitingCount="0" stopTime="0.00" timeLoss="8.25" rerouteNo="0" devices="tripinfo_33" vType="DEFAULT_VEHTYPE" speedFactor="1.06" vaporized=""/>
    <tripinfo id="67" depart="16.00" departLane="159_4way_74to4way_73_0" departPos="5.10" departSpeed="0.00" departDelay="0.59" arrival="61.00" arrivalLane="160_4way_73to4way_83_0" arrivalPos="185.60" arrivalSpeed="11.83" duration="45.00" routeLength="375.13" waitingTime="5.00" waitingCount="1" stopTime="0.00" timeLoss="13.24" rerouteNo="0" devices="tripinfo_67" vType="DEFAULT_VEHTYPE" speedFactor="0.88" vaporized=""/>
    <tripinfo id="1" depart="1.00" departLane="129_4way_53to4way_54_0" departPos="5.10" departSpeed="0.00" departDelay="0.77" arrival="63.00" arrivalLane="87_4way_34to4way_24_0" arrivalPos="185.60" arrivalSpeed="13.67" duration="62.00" routeLength="775.13" waitingTime="0.00" waitingCount="0" stopTime="0.00" timeLoss="7.08" rerouteNo="0" devices="tripinfo_1" vType="DEFAULT_VEHTYPE" speedFactor="1.04" vaporized=""/>
    <tripinfo id="47" depart="11.00" departLane="10_3way_2to4way_12_0" departPos="5.10" departSpeed="0.00" departDelay="0.19" arrival="65.00" arrivalLane="69_4way_13to4way_14_0" arrivalPos="185.60" arrivalSpeed="12.37" duration="54.00" routeLength="575.13" waitingTime="0.00" waitingCount="0" stopTime="0.00" timeLoss="6.37" rerouteNo="0" devices="tripinfo_47" vType="DEFAULT_VEHTYPE" speedFactor="0.90" vaporized=""/>
    <tripinfo id="134" depart="31.00" departLane="138_4way_57to4way_67_0" departPos="5.10" departSpeed="0.00" departDelay="0.18" arrival="65.00" arrivalLane="152_4way_67to4way_68_0" arrivalPos="185.60" arrivalSpeed="13.25" duration="34.00" routeLength="375.13" waitingTime="0.00" waitingCount="0" stopTime="0.00" timeLoss="6.25" rerouteNo="0" devices="tripinfo_134" vType="DEFAULT_VEHTYPE" speedFactor="1.00" vaporized=""/>
    <tripinfo id="155" depart="36.00" departLane="7_3way_19to3way_8_0" departPos="5.10" departSpeed="0.00" departDelay="0.35" arrival="69.00" arrivalLane="7_3way_19to3way_8_0" arrivalPos="382.40" arrivalSpeed="12.81" duration="33.00" routeLength="377.30" waitingTime="0.00" waitingCount="0" stopTime="0.00" timeLoss="3.99" rerouteNo="0" devices="tripinfo_155" vType="DEFAULT_VEHTYPE" speedFactor="0.94" vaporized=""/>
    <tripinfo id="178" depart="41.00" departLane="168_4way_77to4way_87_0" departPos="5.10" departSpeed="0.00" departDelay="0.06" arrival="71.00" arrivalLane="63_4way_87to3way_97_0" arrivalPos="185.60" arrivalSpeed="14.14" duration="30.00" routeLength="380.50" waitingTime="0.00" waitingCount="0" stopTime="0.00" timeLoss="4.32" rerouteNo="0" devices="tripinfo_178" vType="DEFAULT_VEHTYPE" speedFactor="1.07" vaporized=""/>
    <tripinfo id="151" depart="35.00" departLane="53_3way_92to4way_82_0" departPos="5.10" departSpeed="0.00" departDelay="0.27" arrival="73.00" arrivalLane="170_4way_82to4way_81_0" arrivalPos="185.60" arrivalSpeed="13.45" duration="38.00" routeLength="375.13" waitingTime="0.00" waitingCount="0" stopTime="0.00" timeLoss="10.21" rerouteNo="0" devices="tripinfo_151" vType="DEFAULT_VEHTYPE" speedFactor="1.02" vaporized=""/>
    <tripinfo id="117" depart="27.00" departLane="113_4way_52to4way_42_0" departPos="5.10" departSpeed="0.00" departDelay="0.09" arrival="74.00" arrivalLane="110_4way_42to4way_41_0" arrivalPos="185.60" arrivalSpeed="12.11" duration="47.00" routeLength="375.13" waitingTime="7.00" waitingCount="1" stopTime="0.00" timeLoss="16.25" rerouteNo="0" devices="tripinfo_117" vType="DEFAULT_VEHTYPE" speedFactor="0.91" vaporized=""/>
    <tripinfo id="41" depart="10.00" departLane="42_3way_70to4way_71_0" departPos="5.10" departSpeed="0.00" departDelay="0.57" arrival="75.00" arrivalLane="157_4way_72to4way_73_0" arrivalPos="185.60" arrivalSpeed="10.37" duration="65.00" routeLength="580.50" waitingTime="6.00" waitingCount="1" stopTime="0.00" timeLoss="27.49" rerouteNo="0" devices="tripinfo_41" vType="DEFAULT_VEHTYPE" speedFactor="1.12" vaporized=""/>
    <tripinfo id="207" depart="48.00" departLane="169_4way_88to4way_78_0" departPos="5.10" departSpeed="0.00" departDelay="0.39" arrival="75.00" arrivalLane="154_4way_78to4way_68_0" arrivalPos="185.60" arrivalSpeed="17.20" duration="27.00" routeLength="380.50" waitingTime="0.00" waitingCount="0" stopTime="0.00" timeLoss="4.18" rerouteNo="0" devices="tripinfo_207" vType="DEFAULT_VEHTYPE" speedFactor="1.24" vaporized=""/>
    <tripinfo id="51" depart="12.00" departLane="171_4way_83to4way_82_0" departPos="5.10" departSpeed="0.00" departDelay="0.27" arrival="77.00" arrivalLane="51_4way_81to3way_91_0" arrivalPos="185.60" arrivalSpeed="10.22" duration="65.00" routeLength="575.13" waitingTime="0.00" waitingCount="0" stopTime="0.00" timeLoss="7.59" rerouteNo="0" devices="tripinfo_51" vType="DEFAULT_VEHTYPE" speedFactor="0.74" vaporized=""/>
    <tripinfo id="179" depart="42.00" departLane="113_4way_42to4way_52_0" departPos="5.10" departSpeed="0.00" departDelay="0.83" arrival="77.00" arrivalLane="127_4way_52to4way_53_0" arrivalPos="185.60" arrivalSpeed="12.48" duration="35.00" routeLength="375.13" waitingTime="0.00" waitingCount="0" stopTime="0.00" timeLoss="6.64" rerouteNo="0" devices="tripinfo_179" vType="DEFAULT_VEHTYPE" speedFactor="0.97" vaporized=""/>
    <tripinfo id="268" depart="62.00" departLane="72_4way_14to4way_24_0" departPos="5.10" departSpeed="0.00" departDelay="0.36" arrival="77.00" arrivalLane="72_4way_14to4way_24_0" arrivalPos="185.60" arrivalSpeed="16.73" duration="15.00" routeLength="180.50" waitingTime="0.00" waitingCount="0" stopTime="0.00" timeLoss="4.25" rerouteNo="0" devices="tripinfo_268" vType="DEFAULT_VEHTYPE" speedFactor="1.22" vaporized=""/>
    <tripinfo id="61" depart="15.00" departLane="87_4way_34to4way_24_0" departPos="5.10" departSpeed="0.00" departDelay="0.97" arrival="79.00" arrivalLane="67_4way_13to4way_12_0" arrivalPos="185.60" arrivalSpeed="13.71" duration="64.00" routeLength="775.13" waitingTime="0.00" waitingCount="0" stopTime="0.00" timeLoss="6.81" rerouteNo="0" devices="tripinfo_61" vType="DEFAULT_VEHTYPE" speedFactor="1.01" vaporized=""/>
    <tripinfo id="186" depart="43.00" departLane="137_4way_58to4way_57_0" departPos="5.10" departSpeed="0.00" departDelay="0.22" arrival="79.00" arrivalLane="135_4way_57to4way_56_0" arrivalPos="185.60" arrivalSpeed="11.30" duration="36.00" routeLength="380.50" waitingTime="0.00" waitingCount="0" stopTime="0.00" timeLoss="4.45" rerouteNo="0" devices="tripinfo_186" vType="DEFAULT_VEHTYPE" speedFactor="0.87" vaporized=""/>
    <tripinfo id="145" depart="34.00" departLane="61_3way_96to4way_86_0" departPos="5.10" departSpeed="0.00" departDelay="0.65" arrival="81.00" arrivalLane="166_4way_86to4way_76_0" arrivalPos="185.60" arrivalSpeed="13.11" duration="47.00" routeLength="380.50" waitingTime="8.00" waitingCount="1" stopTime="0.00" timeLoss="17.87" rerouteNo="0" devices="tripinfo_145" vType="DEFAULT_VEHTYPE" speedFactor="0.96" vaporized=""/>
    <tripinfo id="97" depart="23.00" departLane="46_3way_80to3way_91_0" departPos="5.10" departSpeed="0.00" departDelay="0.69" arrival="83.00" arrivalLane="52_3way_92to3way_93_0" arrivalPos="185.60" arrivalSpeed="13.58" duration="60.00" routeLength="777.30" waitingTime="0.00" waitingCount="0" stopTime="0.00" timeLoss="6.35" rerouteNo="0" devices="tripinfo_97" vType="DEFAULT_VEHTYPE" speedFactor="1.06" vaporized=""/>
    <tripinfo id="174" depart="41.00" departLane="67_4way_13to4way_12_0" departPos="5.10" departSpeed="0.00" departDelay="0.98" arrival="83.00" arrivalLane="68_4way_12to4way_22_0" arrivalPos="185.60" arrivalSpeed="10.57" duration="42.00" routeLength="375.13" waitingTime="2.00" waitingCount="1" stopTime="0.00" timeLoss="11.86" rerouteNo="0" devices="tripinfo_174" vType="DEFAULT_VEHTYPE" speedFactor="0.94" vaporized=""/>
    <tripinfo id="198" depart="46.00" departLane="20_4way_38to3way_39_0" departPos="5.10" departSpeed="0.00" departDelay="0.46" arrival="84.00" arrivalLane="13_3way_39to3way_29_0" arrivalPos="185.60" arrivalSpeed="11.86" duration="38.00" routeLength="375.13" waitingTime="0.00" waitingCount="0" stopTime="0.00" timeLoss="5.49" rerouteNo="0" devices="tripinfo_198" vType="DEFAULT_VEHTYPE" speedFactor="0.87" vaporized=""/>
    <tripinfo id="101" depart="24.00" departLane="33_3way_7to3way_6_0" departPos="5.10" departSpeed="0.00" departDelay="0.77" arrival="85.00" arrivalLane="15_3way_4to3way_3_0" arrivalPos="185.60" arrivalSpeed="14.19" duration="61.00" routeLength="780.50" waitingTime="0.00" waitingCount="0" stopTime="0.00" timeLoss="5.30" rerouteNo="0" devices="tripinfo_101" vType="DEFAULT_VEHTYPE" speedFactor="1.03" vaporized=""/>
    <tripinfo id="214" depart="51.00" departLane="67_4way_12to4way_13_0" departPos="5.10" departSpeed="0.00" departDelay="1.78" arrival="85.00" arrivalLane="70_4way_13to4way_23_0" arrivalPos="185.60" arrivalSpeed="13.26" duration="34.00" routeLength="380.30" waitingTime="0.00" waitingCount="0" stopTime="0.00" timeLoss="5.74" rerouteNo="0" devices="tripinfo_214" vType="DEFAULT_VEHTYPE" speedFactor="1.00" vaporized=""/>
    <tripinfo id="40" depart="10.00" departLane="103_4way_35to4way_36_0" departPos="5.10" departSpeed="0.00" departDelay="0.80" arrival="86.00" arrivalLane="33_3way_6to3way_7_0" arrivalPos="185.60" arrivalSpeed="14.02" duration="76.00" routeLength="974.92" waitingTime="0.00" waitingCount="0" stopTime="0.00" timeLoss="9.43" rerouteNo="0" devices="tripinfo_40" vType="DEFAULT_VEHTYPE" speedFactor="1.08" vaporized=""/>
    <tripinfo id="220" depart="51.00" departLane="167_4way_78to4way_77_0" departPos="5.10" departSpeed="0.00" departDelay="0.40" arrival="86.00" arrivalLane="165_4way_77to4way_76_0" arrivalPos="185.60" arrivalSpeed="11.55" duration="35.00" routeLength="380.50" waitingTime="0.00" waitingCount="0" stopTime="0.00" timeLoss="4.30" rerouteNo="0" devices="tripinfo_220" vType="DEFAULT_VEHTYPE" speedFactor="0.92" vaporized=""/>
    <tripinfo id="309" depart="72.00" departLane="152_4way_67to4way_68_0" departPos="5.10" departSpeed="0.00" departDelay="0.93" arrival="88.00" arrivalLane="152_4way_67to4way_68_0" arrivalPos="185.60" arrivalSpeed="15.31" duration="16.00" routeLength="180.50" waitingTime="0.00" waitingCount="0" stopTime="0.00" timeLoss="4.03" rerouteNo="0" devices="tripinfo_309" vType="DEFAULT_VEHTYPE" speedFactor="1.12" vaporized=""/>
    <tripinfo id="13" depart="3.00" departLane="109_4way_38to4way_48_0" departPos="5.10" departSpeed="0.00" departDelay="0.01" arrival="89.00" arrivalLane="31_3way_59to3way_69_0" arrivalPos="185.60" arrivalSpeed="13.28" duration="86.00" routeLength="774.92" waitingTime="13.00" waitingCount="2" stopTime="0.00" timeLoss="27.75" rerouteNo="0" devices="tripinfo_13" vType="DEFAULT_VEHTYPE" speedFactor="0.98" vaporized=""/>
    <tripinfo id="16" depart="4.00" departLane="145_4way_73to4way_63_0" departPos="5.10" departSpeed="0.00" departDelay="0.32" arrival="89.00" arrivalLane="112_4way_43to4way_42_0" arrivalPos="185.60" arrivalSpeed="11.73" duration="85.00" routeLength="775.13" waitingTime="6.00" waitingCount="2" stopTime="0.00" timeLoss="22.06" rerouteNo="0" devices="tripinfo_16" vType="DEFAULT_VEHTYPE" speedFactor="0.90" vaporized=""/>
    <tripinfo id="317" depart="73.00" departLane="92_4way_28to4way_27_0" departPos="5.10" departSpeed="0.00" departDelay="0.09" arrival="89.00" arrivalLane="92_4way_28to4way_27_0" arrivalPos="185.60" arrivalSpeed="15.29" duration="16.00" routeLength="180.50" waitingTime="0.00" waitingCount="0" stopTime="0.00" timeLoss="3.48" rerouteNo="0" devices="tripinfo_317" vType="DEFAULT_VEHTYPE" speedFactor="1.11" vaporized=""/>
    <tripinfo id="315" depart="73.00" departLane="19_3way_39to3way_49_0" departPos="5.10" departSpeed="0.00" departDelay="0.55" arrival="90.00" arrivalLane="19_3way_39to3way_49_0" arrivalPos="185.60" arrivalSpeed="11.87" duration="17.00" routeLength="180.50" waitingTime="0.00" waitingCount="0" stopTime="0.00" timeLoss="2.89" rerouteNo="0" devices="tripinfo_315" vType="DEFAULT_VEHTYPE" speedFactor="0.93" vaporized=""/>
    <tripinfo id="247" depart="58.00" departLane="24_4way_41to3way_40_0" departPos="5.10" departSpeed="0.00" departDelay="1.19" arrival="91.00" arrivalLane="17_3way_40to3way_30_0" arrivalPos="185.60" arrivalSpeed="14.18" duration="33.00" routeLength="380.29" waitingTime="0.00" waitingCount="0" stopTime="0.00" timeLoss="6.00" rerouteNo="0" devices="tripinfo_247" vType="DEFAULT_VEHTYPE" speedFactor="1.07" vaporized=""/>
    <tripinfo id="322" depart="75.00" departLane="171_4way_83to4way_82_0" departPos="5.10" departSpeed="0.00" departDelay="0.94" arrival="92.00" arrivalLane="171_4way_83to4way_82_0" arrivalPos="185.60" arrivalSpeed="14.50" duration="17.00" routeLength="180.50" waitingTime="0.00" waitingCount="0" stopTime="0.00" timeLoss="4.25" rerouteNo="0" devices="tripinfo_322" vType="DEFAULT_VEHTYPE" speedFactor="1.08" vaporized=""/>
    <tripinfo id="21" depart="5.00" departLane="34_3way_6to4way_16_0" departPos="5.10" departSpeed="0.00" departDelay="0.17" arrival="94.00" arrivalLane="103_4way_36to4way_35_0" arrivalPos="185.60" arrivalSpeed="10.91" duration="89.00" routeLength="780.30" waitingTime="8.00" waitingCount="2" stopTime="0.00" timeLoss="19.67" rerouteNo="0" devices="tripinfo_21" vType="DEFAULT_VEHTYPE" speedFactor="0.82" vaporized=""/>
    <tripinfo id="29" depart="7.00" departLane="19_3way_39to3way_49_0" departPos="5.10" departSpeed="0.00" departDelay="0.33" arrival="94.00" arrivalLane="43_3way_79to3way_89_0" arrivalPos="185.60" arrivalSpeed="12.88" duration="87.00" routeLength="980.50" waitingTime="0.00" waitingCount="0" stopTime="0.00" timeLoss="12.03" rerouteNo="0" devices="tripinfo_29" vType="DEFAULT_VEHTYPE" speedFactor="0.95" vaporized=""/>
    <tripinfo id="71" depart="17.00" departLane="119_4way_45to4way_55_0" departPos="5.10" departSpeed="0.00" departDelay="0.67" arrival="94.00" arrivalLane="148_4way_65to4way_66_0" arrivalPos="185.60" arrivalSpeed="8.14" duration="77.00" routeLength="575.13" waitingTime="27.00" waitingCount="1" stopTime="0.00" timeLoss="39.75" rerouteNo="0" devices="tripinfo_71" vType="DEFAULT_VEHTYPE" speedFactor="1.13" vaporized=""/>
    <tripinfo id="227" depart="56.00" departLane="30_4way_51to3way_50_0" departPos="5.10" departSpeed="0.00" departDelay="3.79" arrival="94.00" arrivalLane="29_3way_50to3way_60_0" arrivalPos="185.60" arrivalSpeed="12.90" duration="38.00" routeLength="375.13" waitingTime="0.00" waitingCount="0" stopTime="0.00" timeLoss="10.18" rerouteNo="0" devices="tripinfo_227" vType="DEFAULT_VEHTYPE" speedFactor="1.00" vaporized=""/>
    <tripinfo id="45" depart="11.00" departLane="133_4way_55to4way_56_0" departPos="5.10" departSpeed="0.00" departDelay="0.65" arrival="95.00" arrivalLane="32_4way_58to3way_59_0" arrivalPos="185.60" arrivalSpeed="13.59" duration="84.00" routeLength="780.50" waitingTime="10.00" waitingCount="1" stopTime="0.00" timeLoss="27.37" rerouteNo="0" devices="tripinfo_45" vType="DEFAULT_VEHTYPE" speedFactor="1.00" vaporized=""/>
    <tripinfo id="58" depart="14.00" departLane="104_4way_35to4way_45_0" departPos="5.10" departSpeed="0.00" departDelay="0.66" arrival="95.00" arrivalLane="135_4way_56to4way_57_0" arrivalPos="185.60" arrivalSpeed="12.35" duration="81.00" routeLength="775.13" waitingTime="6.00" waitingCount="1" stopTime="0.00" timeLoss="19.84" rerouteNo="0" devices="tripinfo_58" vType="DEFAULT_VEHTYPE" speedFactor="0.93" vaporized=""/>
    <tripinfo id="119" depart="28.00" departLane="19_3way_49to3way_39_0" departPos="5.10" departSpeed="0.00" departDelay="0.63" arrival="96.00" arrivalLane="107_4way_38to4way_37_0" arrivalPos="185.60" arrivalSpeed="11.39" duration="68.00" routeLength="575.13" waitingTime="9.00" waitingCount="1" stopTime="0.00" timeLoss="21.19" rerouteNo="0" devices="tripinfo_119" vType="DEFAULT_VEHTYPE" speedFactor="0.90" vaporized=""/>
    <tripinfo id="190" depart="46.00" departLane="168_4way_87to4way_77_0" departPos="5.10" departSpeed="0.00" departDelay="2.30" arrival="96.00" arrivalLane="165_4way_77to4way_76_0" arrivalPos="185.60" arrivalSpeed="12.87" duration="50.00" routeLength="375.13" waitingTime="12.00" waitingCount="1" stopTime="0.00" timeLoss="24.00" rerouteNo="0" devices="tripinfo_190" vType="DEFAULT_VEHTYPE" speedFactor="1.08" vaporized=""/>
    <tripinfo id="290" depart="67.00" departLane="27_3way_6to3way_5_0" departPos="5.10" departSpeed="0.00" departDelay="0.30" arrival="96.00" arrivalLane="21_3way_5to3way_4_0" arrivalPos="185.60" arrivalSpeed="14.99" duration="29.00" routeLength="380.50" waitingTime="0.00" waitingCount="0" stopTime="0.00" timeLoss="4.56" rerouteNo="0" devices="tripinfo_290" vType="DEFAULT_VEHTYPE" speedFactor="1.14" vaporized=""/>
    <tripinfo id="76" depart="18.00" departLane="93_4way_27to4way_37_0" departPos="5.10" departSpeed="0.00" departDelay="0.52" arrival="99.00" arrivalLane="26_4way_48to3way_49_0" arrivalPos="185.60" arrivalSpeed="11.21" duration="81.00" routeLength="775.13" waitingTime="7.00" waitingCount="1" stopTime="0.00" timeLoss="17.82" rerouteNo="0" devices="tripinfo_76" vType="DEFAULT_VEHTYPE" speedFactor="0.90" vaporized=""/>
    <tripinfo id="147" depart="34.00" departLane="107_4way_37to4way_38_0" departPos="5.10" departSpeed="0.00" departDelay="0.19" arrival="99.00" arrivalLane="13_3way_39to3way_29_0" arrivalPos="185.60" arrivalSpeed="12.25" duration="65.00" routeLength="575.13" waitingTime="8.00" waitingCount="1" stopTime="0.00" timeLoss="20.71" rerouteNo="0" devices="tripinfo_147" vType="DEFAULT_VEHTYPE" speedFactor="0.97" vaporized=""/>
    <tripinfo id="271" depart="64.00" departLane="65_4way_11to4way_12_0" departPos="5.10" departSpeed="0.00" departDelay="1.67" arrival="100.00" arrivalLane="67_4way_12to4way_13_0" arrivalPos="185.60" arrivalSpeed="8.63" duration="36.00" routeLength="380.50" waitingTime="0.00" waitingCount="0" stopTime="0.00" timeLoss="5.55" rerouteNo="0" devices="tripinfo_271" vType="DEFAULT_VEHTYPE" speedFactor="0.90" vaporized=""/>
    <tripinfo id="92" depart="22.00" departLane="69_4way_14to4way_13_0" departPos="5.10" departSpeed="0.00" departDelay="0.84" arrival="101.00" arrivalLane="100_4way_33to4way_43_0" arrivalPos="185.60" arrivalSpeed="4.93" duration="79.00" routeLength="775.13" waitingTime="9.00" waitingCount="2" stopTime="0.00" timeLoss="29.04" rerouteNo="0" devices="tripinfo_92" vType="DEFAULT_VEHTYPE" speedFactor="1.13" vaporized=""/>
    <tripinfo id="56" depart="13.00" departLane="155_4way_71to4way_72_0" departPos="5.10" departSpeed="0.00" departDelay="0.12" arrival="102.00" arrivalLane="163_4way_75to4way_76_0" arrivalPos="185.60" arrivalSpeed="13.47" duration="89.00" routeLength="980.50" waitingTime="8.00" waitingCount="1" stopTime="0.00" timeLoss="19.45" rerouteNo="0" devices="tripinfo_56" vType="DEFAULT_VEHTYPE" speedFactor="1.02" vaporized=""/>
    <tripinfo id="115" depart="27.00" departLane="16_3way_3to4way_13_0" departPos="5.10" departSpeed="0.00" departDelay="0.55" arrival="102.00" arrivalLane="70_4way_13to4way_23_0" arrivalPos="185.60" arrivalSpeed="11.75" duration="75.00" routeLength="380.50" waitingTime="37.00" waitingCount="1" stopTime="0.00" timeLoss="45.00" rerouteNo="0" devices="tripinfo_115" vType="DEFAULT_VEHTYPE" speedFactor="0.92" vaporized=""/>
    <tripinfo id="165" depart="40.00" departLane="103_4way_35to4way_36_0" departPos="5.10" departSpeed="0.00" departDelay="2.05" arrival="102.00" arrivalLane="34_4way_16to3way_6_0" arrivalPos="185.60" arrivalSpeed="13.76" duration="62.00" routeLength="775.13" waitingTime="0.00" waitingCount="0" stopTime="0.00" timeLoss="8.31" rerouteNo="0" devices="tripinfo_165" vType="DEFAULT_VEHTYPE" speedFactor="1.07" vaporized=""/>
    <tripinfo id="5" depart="2.00" departLane="100_4way_33to4way_43_0" departPos="5.10" departSpeed="0.00" departDelay="0.85" arrival="103.00" arrivalLane="133_4way_55to4way_56_0" arrivalPos="185.60" arrivalSpeed="11.90" duration="101.00" routeLength="975.13" waitingTime="11.00" waitingCount="1" stopTime="0.00" timeLoss="25.49" rerouteNo="0" devices="tripinfo_5" vType="DEFAULT_VEHTYPE" speedFactor="0.94" vaporized=""/>
    <tripinfo id="19" depart="5.00" departLane="89_4way_25to4way_35_0" departPos="5.10" departSpeed="0.00" departDelay="0.63" arrival="103.00" arrivalLane="107_4way_37to4way_38_0" arrivalPos="185.60" arrivalSpeed="11.12" duration="98.00" routeLength="775.13" waitingTime="18.00" waitingCount="2" stopTime="0.00" timeLoss="34.23" rerouteNo="0" devices="tripinfo_19" vType="DEFAULT_VEHTYPE" speedFactor="0.89" vaporized=""/>
    <tripinfo id="303" depart="70.00" departLane="32_3way_59to4way_58_0" departPos="5.10" departSpeed="0.00" departDelay="0.31" arrival="104.00" arrivalLane="139_4way_58to4way_68_0" arrivalPos="185.60" arrivalSpeed="13.13" duration="34.00" routeLength="375.13" waitingTime="0.00" waitingCount="0" stopTime="0.00" timeLoss="6.62" rerouteNo="0" devices="tripinfo_303" vType="DEFAULT_VEHTYPE" speedFactor="1.02" vaporized=""/>
    <tripinfo id="64" depart="15.00" departLane="83_4way_22to4way_32_0" departPos="5.10" departSpeed="0.00" departDelay="0.28" arrival="107.00" arrivalLane="114_4way_43to4way_44_0" arrivalPos="185.60" arrivalSpeed="12.92" duration="92.00" routeLength="775.13" waitingTime="14.00" waitingCount="1" stopTime="0.00" timeLoss="33.48" rerouteNo="0" devices="tripinfo_64" vType="DEFAULT_VEHTYPE" speedFactor="0.96" vaporized=""/>
    <tripinfo id="114" depart="27.00" departLane="57_3way_94to4way_84_0" departPos="5.10" departSpeed="0.00" departDelay="0.78" arrival="107.00" arrivalLane="47_4way_81to3way_80_0" arrivalPos="185.60" arrivalSpeed="14.42" duration="80.00" routeLength="975.13" waitingTime="0.00" waitingCount="0" stopTime="0.00" timeLoss="11.72" rerouteNo="0" devices="tripinfo_114" vType="DEFAULT_VEHTYPE" speedFactor="1.06" vaporized=""/>
    <tripinfo id="333" depart="77.00" departLane="161_4way_74to4way_75_0" departPos="5.10" departSpeed="0.00" departDelay="0.41" arrival="107.00" arrivalLane="163_4way_75to4way_76_0" arrivalPos="185.60" arrivalSpeed="14.54" duration="30.00" routeLength="380.50" waitingTime="0.00" waitingCount="0" stopTime="0.00" timeLoss="5.15" rerouteNo="0" devices="tripinfo_333" vType="DEFAULT_VEHTYPE" speedFactor="1.14" vaporized=""/>
    <tripinfo id="96" depart="23.00" departLane="171_4way_82to4way_83_0" departPos="5.10" departSpeed="0.00" departDelay="0.92" arrival="108.00" arrivalLane="164_4way_85to4way_75_0" arrivalPos="185.60" arrivalSpeed="11.92" duration="85.00" routeLength="775.13" waitingTime="13.00" waitingCount="1" stopTime="0.00" timeLoss="25.47" rerouteNo="0" devices="tripinfo_96" vType="DEFAULT_VEHTYPE" speedFactor="0.95" vaporized=""/>
    <tripinfo id="104" depart="24.00" departLane="56_3way_94to3way_95_0" departPos="5.10" departSpeed="0.00" departDelay="0.08" arrival="108.00" arrivalLane="64_3way_98to4way_88_0" arrivalPos="185.60" arrivalSpeed="12.02" duration="84.00" routeLength="975.13" waitingTime="0.00" waitingCount="0" stopTime="0.00" timeLoss="8.45" rerouteNo="0" devices="tripinfo_104" vType="DEFAULT_VEHTYPE" speedFactor="0.95" vaporized=""/>
    <tripinfo id="109" depart="30.00" departLane="120_4way_47to4way_46_0" departPos="5.10" departSpeed="0.00" departDelay="4.93" arrival="109.00" arrivalLane="117_4way_44to4way_54_0" arrivalPos="185.60" arrivalSpeed="13.55" duration="79.00" routeLength="775.13" waitingTime="9.00" waitingCount="1" stopTime="0.00" timeLoss="23.71" rerouteNo="0" devices="tripinfo_109" vType="DEFAULT_VEHTYPE" speedFactor="1.04" vaporized=""/>