<?xml version="1.0" encoding="UTF-8"?>

<!-- generated on 2023-08-15 20:09:29 by Eclipse SUMO sumo Version 1.12.0
<configuration xmlns:xsi="http://www.w3.org/2001/XMLSchema-instance" xsi:noNamespaceSchemaLocation="http://sumo.dlr.de/xsd/sumoConfiguration.xsd">

    <input>
        <net-file value="../../data_generation/sq.net.xml"/>
        <route-files value="../../data_generation/sq.rou.xml"/>
    </input>

    <output>
        <tripinfo-output value="tripinfo.xml"/>
        <statistic-output value="statistic.xml"/>
    </output>

    <time>
        <begin value="0"/>
        <end value="3600"/>
    </time>

    <processing>
        <time-to-teleport value="-1"/>
    </processing>

    <traci_server>
        <remote-port value="47285"/>
    </traci_server>

    <random_number>
        <seed value="1395"/>
    </random_number>

    <gui_only>
        <gui-settings-file value="../../data_generation/view_HY_0402.xml"/>
    </gui_only>

</configuration>
-->

<tripinfos xmlns:xsi="http://www.w3.org/2001/XMLSchema-instance" xsi:noNamespaceSchemaLocation="http://sumo.dlr.de/xsd/tripinfo_file.xsd">
    <tripinfo id="22" depart="3.00" departLane="478_4way_291to4way_271_0" departPos="5.10" departSpeed="0.00" departDelay="0.41" arrival="13.00" arrivalLane="478_4way_291to4way_271_0" arrivalPos="85.60" arrivalSpeed="13.25" duration="10.00" routeLength="80.50" waitingTime="0.00" waitingCount="0" stopTime="0.00" timeLoss="3.34" rerouteNo="0" devices="tripinfo_22" vType="DEFAULT_VEHTYPE" speedFactor="1.00" vaporized=""/>
    <tripinfo id="18" depart="5.00" departLane="359_4way_230to4way_210_0" departPos="5.10" departSpeed="0.00" departDelay="2.88" arrival="23.00" arrivalLane="322_4way_210to4way_190_0" arrivalPos="85.60" arrivalSpeed="13.26" duration="18.00" routeLength="180.50" waitingTime="0.00" waitingCount="0" stopTime="0.00" timeLoss="4.03" rerouteNo="0" devices="tripinfo_18" vType="DEFAULT_VEHTYPE" speedFactor="0.96" vaporized=""/>
    <tripinfo id="160" depart="19.00" departLane="90_3way_382to4way_362_0" departPos="5.10" departSpeed="0.00" departDelay="0.18" arrival="29.00" arrivalLane="90_3way_382to4way_362_0" arrivalPos="85.60" arrivalSpeed="11.72" duration="10.00" routeLength="80.50" waitingTime="0.00" waitingCount="0" stopTime="0.00" timeLoss="2.80" rerouteNo="0" devices="tripinfo_160" vType="DEFAULT_VEHTYPE" speedFactor="0.88" vaporized=""/>
    <tripinfo id="27" depart="4.00" departLane="41_3way_180to3way_200_0" departPos="5.10" departSpeed="0.00" departDelay="0.82" arrival="30.00" arrivalLane="54_3way_220to4way_221_0" arrivalPos="85.60" arrivalSpeed="13.86" duration="26.00" routeLength="275.13" waitingTime="0.00" waitingCount="0" stopTime="0.00" timeLoss="6.25" rerouteNo="0" devices="tripinfo_27" vType="DEFAULT_VEHTYPE" speedFactor="1.03" vaporized=""/>
    <tripinfo id="167" depart="20.00" departLane="697_4way_54to4way_74_0" departPos="5.10" departSpeed="0.00" departDelay="0.36" arrival="30.00" arrivalLane="697_4way_54to4way_74_0" arrivalPos="85.60" arrivalSpeed="10.98" duration="10.00" routeLength="80.50" waitingTime="0.00" waitingCount="0" stopTime="0.00" timeLoss="2.54" rerouteNo="0" devices="tripinfo_167" vType="DEFAULT_VEHTYPE" speedFactor="0.85" vaporized=""/>
    <tripinfo id="198" depart="24.00" departLane="540_4way_324to4way_304_0" departPos="5.10" departSpeed="0.00" departDelay="0.71" arrival="35.00" arrivalLane="540_4way_324to4way_304_0" arrivalPos="85.60" arrivalSpeed="11.89" duration="11.00" routeLength="80.50" waitingTime="0.00" waitingCount="0" stopTime="0.00" timeLoss="3.45" rerouteNo="0" devices="tripinfo_198" vType="DEFAULT_VEHTYPE" speedFactor="0.87" vaporized=""/>
    <tripinfo id="303" depart="36.00" departLane="148_4way_102to4way_103_0" departPos="5.10" departSpeed="0.00" departDelay="0.37" arrival="46.00" arrivalLane="148_4way_102to4way_103_0" arrivalPos="85.60" arrivalSpeed="13.41" duration="10.00" routeLength="80.50" waitingTime="0.00" waitingCount="0" stopTime="0.00" timeLoss="3.49" rerouteNo="0" devices="tripinfo_303" vType="DEFAULT_VEHTYPE" speedFactor="1.02" vaporized=""/>
    <tripinfo id="93" depart="11.00" departLane="628_4way_369to4way_349_0" departPos="5.10" departSpeed="0.00" departDelay="0.06" arrival="48.00" arrivalLane="547_4way_309to4way_308_0" arrivalPos="85.60" arrivalSpeed="12.75" duration="37.00" routeLength="375.13" waitingTime="0.00" waitingCount="0" stopTime="0.00" timeLoss="8.38" rerouteNo="0" devices="tripinfo_93" vType="DEFAULT_VEHTYPE" speedFactor="1.00" vaporized=""/>
    <tripinfo id="332" depart="40.00" departLane="542_4way_305to4way_325_0" departPos="5.10" departSpeed="0.00" departDelay="0.96" arrival="50.00" arrivalLane="542_4way_305to4way_325_0" arrivalPos="85.60" arrivalSpeed="11.30" duration="10.00" routeLength="80.50" waitingTime="0.00" waitingCount="0" stopTime="0.00" timeLoss="3.03" rerouteNo="0" devices="tripinfo_332" vType="DEFAULT_VEHTYPE" speedFactor="0.83" vaporized=""/>
    <tripinfo id="7" depart="1.00" departLane="77_3way_359to3way_339_0" departPos="5.10" departSpeed="0.00" departDelay="0.18" arrival="51.00" arrivalLane="55_3way_259to3way_239_0" arrivalPos="85.60" arrivalSpeed="12.69" duration="50.00" routeLength="580.50" waitingTime="0.00" waitingCount="0" stopTime="0.00" timeLoss="5.25" rerouteNo="0" devices="tripinfo_7" vType="DEFAULT_VEHTYPE" speedFactor="0.95" vaporized=""/>
    <tripinfo id="156" depart="19.00" departLane="81_3way_379to3way_359_0" departPos="5.10" departSpeed="0.00" departDelay="0.65" arrival="56.00" arrivalLane="67_3way_319to3way_299_0" arrivalPos="85.60" arrivalSpeed="11.73" duration="37.00" routeLength="380.50" waitingTime="0.00" waitingCount="0" stopTime="0.00" timeLoss="6.14" rerouteNo="0" devices="tripinfo_156" vType="DEFAULT_VEHTYPE" speedFactor="0.91" vaporized=""/>
    <tripinfo id="324" depart="39.00" departLane="120_3way_396to4way_376_0" departPos="5.10" departSpeed="0.00" departDelay="0.90" arrival="57.00" arrivalLane="666_4way_376to4way_375_0" arrivalPos="85.60" arrivalSpeed="14.11" duration="18.00" routeLength="175.13" waitingTime="0.00" waitingCount="0" stopTime="0.00" timeLoss="5.17" rerouteNo="0" devices="tripinfo_324" vType="DEFAULT_VEHTYPE" speedFactor="1.05" vaporized=""/>
    <tripinfo id="149" depart="18.00" departLane="739_4way_78to4way_98_0" departPos="5.10" departSpeed="0.00" departDelay="0.48" arrival="59.00" arrivalLane="267_4way_158to4way_178_0" arrivalPos="85.60" arrivalSpeed="12.74" duration="41.00" routeLength="480.50" waitingTime="0.00" waitingCount="0" stopTime="0.00" timeLoss="4.50" rerouteNo="0" devices="tripinfo_149" vType="DEFAULT_VEHTYPE" speedFactor="0.95" vaporized=""/>
    <tripinfo id="351" depart="42.00" departLane="73_3way_339to3way_319_0" departPos="5.10" departSpeed="0.00" departDelay="0.72" arrival="61.00" arrivalLane="67_3way_319to3way_299_0" arrivalPos="85.60" arrivalSpeed="11.52" duration="19.00" routeLength="180.50" waitingTime="0.00" waitingCount="0" stopTime="0.00" timeLoss="3.12" rerouteNo="0" devices="tripinfo_351" vType="DEFAULT_VEHTYPE" speedFactor="0.85" vaporized=""/>
    <tripinfo id="163" depart="20.00" departLane="179_4way_132to4way_112_0" departPos="5.10" departSpeed="0.00" departDelay="0.83" arrival="62.00" arrivalLane="571_4way_52to4way_32_0" arrivalPos="85.60" arrivalSpeed="12.62" duration="42.00" routeLength="480.50" waitingTime="0.00" waitingCount="0" stopTime="0.00" timeLoss="4.66" rerouteNo="0" devices="tripinfo_163" vType="DEFAULT_VEHTYPE" speedFactor="0.94" vaporized=""/>
    <tripinfo id="445" depart="54.00" departLane="465_4way_267to4way_266_0" departPos="5.10" departSpeed="0.00" departDelay="1.67" arrival="63.00" arrivalLane="465_4way_267to4way_266_0" arrivalPos="85.60" arrivalSpeed="13.02" duration="9.00" routeLength="80.50" waitingTime="0.00" waitingCount="0" stopTime="0.00" timeLoss="3.29" rerouteNo="0" devices="tripinfo_445" vType="DEFAULT_VEHTYPE" speedFactor="1.02" vaporized=""/>
    <tripinfo id="37" depart="5.00" departLane="27_3way_16to3way_15_0" departPos="5.10" departSpeed="0.00" departDelay="0.65" arrival="69.00" arrivalLane="183_4way_93to4way_113_0" arrivalPos="85.60" arrivalSpeed="12.94" duration="64.00" routeLength="775.13" waitingTime="0.00" waitingCount="0" stopTime="0.00" timeLoss="7.03" rerouteNo="0" devices="tripinfo_37" vType="DEFAULT_VEHTYPE" speedFactor="0.99" vaporized=""/>
    <tripinfo id="126" depart="15.00" departLane="328_4way_193to4way_213_0" departPos="5.10" departSpeed="0.00" departDelay="0.18" arrival="69.00" arrivalLane="560_4way_313to4way_333_0" arrivalPos="85.60" arrivalSpeed="13.75" duration="54.00" routeLength="680.50" waitingTime="0.00" waitingCount="0" stopTime="0.00" timeLoss="4.70" rerouteNo="0" devices="tripinfo_126" vType="DEFAULT_VEHTYPE" speedFactor="1.01" vaporized=""/>
    <tripinfo id="318" depart="39.00" departLane="109_3way_392to3way_391_0" departPos="5.10" departSpeed="0.00" departDelay="1.60" arrival="71.00" arrivalLane="101_3way_389to3way_388_0" arrivalPos="85.60" arrivalSpeed="13.25" duration="32.00" routeLength="380.50" waitingTime="0.00" waitingCount="0" stopTime="0.00" timeLoss="4.59" rerouteNo="0" devices="tripinfo_318" vType="DEFAULT_VEHTYPE" speedFactor="1.01" vaporized=""/>
    <tripinfo id="14" depart="2.00" departLane="716_4way_66to4way_86_0" departPos="5.10" departSpeed="0.00" departDelay="0.35" arrival="77.00" arrivalLane="315_4way_187to4way_188_0" arrivalPos="85.60" arrivalSpeed="12.18" duration="75.00" routeLength="775.13" waitingTime="0.00" waitingCount="0" stopTime="0.00" timeLoss="15.34" rerouteNo="0" devices="tripinfo_14" vType="DEFAULT_VEHTYPE" speedFactor="0.95" vaporized=""/>
    <tripinfo id="72" depart="9.00" departLane="326_4way_192to4way_212_0" departPos="5.10" departSpeed="0.00" departDelay="0.53" arrival="77.00" arrivalLane="520_4way_293to4way_294_0" arrivalPos="85.60" arrivalSpeed="15.50" duration="68.00" routeLength="675.13" waitingTime="12.00" waitingCount="1" stopTime="0.00" timeLoss="24.45" rerouteNo="0" devices="tripinfo_72" vType="DEFAULT_VEHTYPE" speedFactor="1.15" vaporized=""/>
    <tripinfo id="148" depart="18.00" departLane="118_4way_375to3way_395_0" departPos="5.10" departSpeed="0.00" departDelay="0.59" arrival="77.00" arrivalLane="117_3way_395to3way_396_0" arrivalPos="85.60" arrivalSpeed="13.57" duration="59.00" routeLength="175.13" waitingTime="36.00" waitingCount="1" stopTime="0.00" timeLoss="45.96" rerouteNo="0" devices="tripinfo_148" vType="DEFAULT_VEHTYPE" speedFactor="1.07" vaporized=""/>
    <tripinfo id="262" depart="31.00" departLane="714_4way_85to4way_65_0" departPos="5.10" departSpeed="0.00" departDelay="0.19" arrival="77.00" arrivalLane="124_3way_5to3way_4_0" arrivalPos="85.60" arrivalSpeed="12.24" duration="46.00" routeLength="475.13" waitingTime="0.00" waitingCount="0" stopTime="0.00" timeLoss="7.84" rerouteNo="0" devices="tripinfo_262" vType="DEFAULT_VEHTYPE" speedFactor="0.93" vaporized=""/>
    <tripinfo id="326" depart="39.00" departLane="18_3way_120to4way_121_0" departPos="5.10" departSpeed="0.00" departDelay="0.66" arrival="77.00" arrivalLane="198_4way_121to4way_122_0" arrivalPos="85.60" arrivalSpeed="13.00" duration="38.00" routeLength="180.50" waitingTime="15.00" waitingCount="1" stopTime="0.00" timeLoss="24.61" rerouteNo="0" devices="tripinfo_326" vType="DEFAULT_VEHTYPE" speedFactor="1.00" vaporized=""/>
    <tripinfo id="397" depart="47.00" departLane="372_4way_217to4way_218_0" departPos="5.10" departSpeed="0.00" departDelay="0.31" arrival="77.00" arrivalLane="337_4way_218to4way_198_0" arrivalPos="85.60" arrivalSpeed="14.46" duration="30.00" routeLength="175.13" waitingTime="9.00" waitingCount="1" stopTime="0.00" timeLoss="16.69" rerouteNo="0" devices="tripinfo_397" vType="DEFAULT_VEHTYPE" speedFactor="1.05" vaporized=""/>
    <tripinfo id="9" depart="2.00" departLane="733_4way_76to4way_75_0" departPos="5.10" departSpeed="0.00" departDelay="0.94" arrival="78.00" arrivalLane="731_4way_75to4way_74_0" arrivalPos="85.60" arrivalSpeed="11.71" duration="76.00" routeLength="180.50" waitingTime="53.00" waitingCount="1" stopTime="0.00" timeLoss="60.96" rerouteNo="0" devices="tripinfo_9" vType="DEFAULT_VEHTYPE" speedFactor="0.91" vaporized=""/>
    <tripinfo id="164" depart="20.00" departLane="207_4way_145to4way_125_0" departPos="5.10" departSpeed="0.00" departDelay="0.71" arrival="78.00" arrivalLane="151_4way_104to4way_103_0" arrivalPos="85.60" arrivalSpeed="14.29" duration="58.00" routeLength="375.13" waitingTime="21.00" waitingCount="1" stopTime="0.00" timeLoss="32.98" rerouteNo="0" devices="tripinfo_164" vType="DEFAULT_VEHTYPE" speedFactor="1.11" vaporized=""/>
    <tripinfo id="47" depart="6.00" departLane="357_4way_21to4way_41_0" departPos="5.10" departSpeed="0.00" departDelay="0.47" arrival="79.00" arrivalLane="235_4way_142to4way_143_0" arrivalPos="85.60" arrivalSpeed="11.43" duration="73.00" routeLength="775.13" waitingTime="0.00" waitingCount="0" stopTime="0.00" timeLoss="9.90" rerouteNo="0" devices="tripinfo_47" vType="DEFAULT_VEHTYPE" speedFactor="0.90" vaporized=""/>
    <tripinfo id="452" depart="54.00" departLane="755_4way_97to4way_96_0" departPos="5.10" departSpeed="0.00" departDelay="0.84" arrival="79.00" arrivalLane="192_4way_96to4way_116_0" arrivalPos="85.60" arrivalSpeed="15.02" duration="25.00" routeLength="175.13" waitingTime="3.00" waitingCount="1" stopTime="0.00" timeLoss="12.71" rerouteNo="0" devices="tripinfo_452" vType="DEFAULT_VEHTYPE" speedFactor="1.09" vaporized=""/>
    <tripinfo id="531" depart="63.00" departLane="124_3way_5to3way_4_0" departPos="5.10" departSpeed="0.00" departDelay="0.55" arrival="79.00" arrivalLane="69_3way_4to3way_3_0" arrivalPos="85.60" arrivalSpeed="15.21" duration="16.00" routeLength="180.50" waitingTime="0.00" waitingCount="0" stopTime="0.00" timeLoss="3.47" rerouteNo="0" devices="tripinfo_531" vType="DEFAULT_VEHTYPE" speedFactor="1.11" vaporized=""/>
    <tripinfo id="203" depart="24.00" departLane="708_4way_62to4way_82_0" departPos="5.10" departSpeed="0.00" departDelay="0.13" arrival="80.00" arrivalLane="742_4way_83to4way_84_0" arrivalPos="85.60" arrivalSpeed="12.43" duration="56.00" routeLength="275.13" waitingTime="20.00" waitingCount="1" stopTime="0.00" timeLoss="34.28" rerouteNo="0" devices="tripinfo_203" vType="DEFAULT_VEHTYPE" speedFactor="0.95" vaporized=""/>
    <tripinfo id="371" depart="44.00" departLane="47_3way_40to3way_20_0" departPos="5.10" departSpeed="0.00" departDelay="0.37" arrival="80.00" arrivalLane="1_3way_1to3way_2_0" arrivalPos="85.60" arrivalSpeed="11.76" duration="36.00" routeLength="383.70" waitingTime="0.00" waitingCount="0" stopTime="0.00" timeLoss="5.05" rerouteNo="0" devices="tripinfo_371" vType="DEFAULT_VEHTYPE" speedFactor="0.92" vaporized=""/>
    <tripinfo id="610" depart="72.00" departLane="413_4way_238to4way_258_0" departPos="5.10" departSpeed="0.00" departDelay="0.26" arrival="82.00" arrivalLane="413_4way_238to4way_258_0" arrivalPos="85.60" arrivalSpeed="11.98" duration="10.00" routeLength="80.50" waitingTime="0.00" waitingCount="0" stopTime="0.00" timeLoss="3.37" rerouteNo="0" devices="tripinfo_610" vType="DEFAULT_VEHTYPE" speedFactor="0.93" vaporized=""/>
    <tripinfo id="284" depart="34.00" departLane="196_4way_138to4way_118_0" departPos="5.10" departSpeed="0.00" departDelay="0.60" arrival="83.00" arrivalLane="187_4way_116to4way_115_0" arrivalPos="85.60" arrivalSpeed="15.21" duration="49.00" routeLength="375.13" waitingTime="12.00" waitingCount="1" stopTime="0.00" timeLoss="23.94" rerouteNo="0" devices="tripinfo_284" vType="DEFAULT_VEHTYPE" speedFactor="1.12" vaporized=""/>
    <tripinfo id="115" depart="14.00" departLane="455_4way_261to4way_262_0" departPos="5.10" departSpeed="0.00" departDelay="0.48" arrival="85.00" arrivalLane="380_4way_242to4way_222_0" arrivalPos="85.60" arrivalSpeed="11.73" duration="71.00" routeLength="275.13" waitingTime="41.00" waitingCount="1" stopTime="0.00" timeLoss="48.91" rerouteNo="0" devices="tripinfo_115" vType="DEFAULT_VEHTYPE" speedFactor="0.92" vaporized=""/>
    <tripinfo id="127" depart="15.00" departLane="78_3way_339to4way_338_0" departPos="5.10" departSpeed="0.00" departDelay="0.06" arrival="85.00" arrivalLane="604_4way_337to4way_336_0" arrivalPos="85.60" arrivalSpeed="13.48" duration="70.00" routeLength="280.50" waitingTime="38.00" waitingCount="1" stopTime="0.00" timeLoss="48.86" rerouteNo="0" devices="tripinfo_127" vType="DEFAULT_VEHTYPE" speedFactor="1.00" vaporized=""/>
    <tripinfo id="138" depart="17.00" departLane="406_4way_234to4way_254_0" departPos="5.10" departSpeed="0.00" departDelay="0.77" arrival="85.00" arrivalLane="487_4way_276to4way_277_0" arrivalPos="85.60" arrivalSpeed="13.36" duration="68.00" routeLength="475.13" waitingTime="20.00" waitingCount="1" stopTime="0.00" timeLoss="32.78" rerouteNo="0" devices="tripinfo_138" vType="DEFAULT_VEHTYPE" speedFactor="1.00" vaporized=""/>
    <tripinfo id="118" depart="14.00" departLane="745_4way_87to4way_86_0" departPos="5.10" departSpeed="0.00" departDelay="0.12" arrival="87.00" arrivalLane="159_4way_85to4way_105_0" arrivalPos="85.60" arrivalSpeed="13.61" duration="73.00" routeLength="275.13" waitingTime="41.00" waitingCount="1" stopTime="0.00" timeLoss="53.09" rerouteNo="0" devices="tripinfo_118" vType="DEFAULT_VEHTYPE" speedFactor="1.05" vaporized=""/>
    <tripinfo id="68" depart="8.00" departLane="254_4way_151to4way_171_0" departPos="5.10" departSpeed="0.00" departDelay="0.00" arrival="89.00" arrivalLane="394_4way_229to4way_249_0" arrivalPos="85.60" arrivalSpeed="14.50" duration="81.00" routeLength="674.93" waitingTime="17.00" waitingCount="1" stopTime="0.00" timeLoss="34.93" rerouteNo="0" devices="tripinfo_68" vType="DEFAULT_VEHTYPE" speedFactor="1.09" vaporized=""/>
    <tripinfo id="233" depart="29.00" departLane="460_4way_263to4way_283_0" departPos="5.10" departSpeed="0.00" departDelay="1.60" arrival="89.00" arrivalLane="580_4way_325to4way_326_0" arrivalPos="85.60" arrivalSpeed="11.21" duration="60.00" routeLength="575.13" waitingTime="0.00" waitingCount="0" stopTime="0.00" timeLoss="8.68" rerouteNo="0" devices="tripinfo_233" vType="DEFAULT_VEHTYPE" speedFactor="0.83" vaporized=""/>
    <tripinfo id="429" depart="51.00" departLane="615_4way_344to4way_343_0" departPos="5.10" departSpeed="0.00" departDelay="0.55" arrival="89.00" arrivalLane="80_4way_341to3way_340_0" arrivalPos="85.60" arrivalSpeed="15.20" duration="38.00" routeLength="380.50" waitingTime="4.00" waitingCount="1" stopTime="0.00" timeLoss="14.19" rerouteNo="0" devices="tripinfo_429" vType="DEFAULT_VEHTYPE" speedFactor="1.16" vaporized=""/>
    <tripinfo id="237" depart="28.00" departLane="365_4way_213to4way_233_0" departPos="5.10" departSpeed="0.00" departDelay="0.13" arrival="93.00" arrivalLane="487_4way_276to4way_277_0" arrivalPos="85.60" arrivalSpeed="13.39" duration="65.00" routeLength="675.13" waitingTime="1.00" waitingCount="1" stopTime="0.00" timeLoss="13.90" rerouteNo="0" devices="tripinfo_237" vType="DEFAULT_VEHTYPE" speedFactor="0.97" vaporized=""/>
    <tripinfo id="418" depart="50.00" departLane="131_3way_59to4way_58_0" departPos="5.10" departSpeed="0.00" departDelay="0.84" arrival="93.00" arrivalLane="703_4way_57to4way_77_0" arrivalPos="85.60" arrivalSpeed="10.05" duration="43.00" routeLength="275.13" waitingTime="6.00" waitingCount="1" stopTime="0.00" timeLoss="16.69" rerouteNo="0" devices="tripinfo_418" vType="DEFAULT_VEHTYPE" speedFactor="0.79" vaporized=""/>
    <tripinfo id="189" depart="23.00" departLane="512_4way_30to4way_29_0" departPos="5.10" departSpeed="0.00" departDelay="0.77" arrival="96.00" arrivalLane="474_4way_27to4way_47_0" arrivalPos="85.60" arrivalSpeed="11.89" duration="73.00" routeLength="375.13" waitingTime="31.00" waitingCount="1" stopTime="0.00" timeLoss="42.43" rerouteNo="0" devices="tripinfo_189" vType="DEFAULT_VEHTYPE" speedFactor="0.92" vaporized=""/>
    <tripinfo id="507" depart="60.00" departLane="453_4way_26to4way_27_0" departPos="5.10" departSpeed="0.00" departDelay="0.38" arrival="97.00" arrivalLane="143_4way_29to3way_9_0" arrivalPos="85.60" arrivalSpeed="13.13" duration="37.00" routeLength="375.13" waitingTime="0.00" waitingCount="0" stopTime="0.00" timeLoss="7.88" rerouteNo="0" devices="tripinfo_507" vType="DEFAULT_VEHTYPE" speedFactor="0.97" vaporized=""/>
    <tripinfo id="197" depart="24.00" departLane="669_4way_58to4way_38_0" departPos="5.10" departSpeed="0.00" departDelay="0.83" arrival="99.00" arrivalLane="23_3way_15to3way_14_0" arrivalPos="85.60" arrivalSpeed="13.35" duration="75.00" routeLength="575.13" waitingTime="24.00" waitingCount="1" stopTime="0.00" timeLoss="33.27" rerouteNo="0" devices="tripinfo_197" vType="DEFAULT_VEHTYPE" speedFactor="1.01" vaporized=""/>
    <tripinfo id="357" depart="42.00" departLane="34_4way_161to3way_160_0" departPos="5.10" departSpeed="0.00" departDelay="0.02" arrival="102.00" arrivalLane="53_3way_220to3way_240_0" arrivalPos="85.60" arrivalSpeed="14.42" duration="60.00" routeLength="475.13" waitingTime="14.00" waitingCount="1" stopTime="0.00" timeLoss="26.20" rerouteNo="0" devices="tripinfo_357" vType="DEFAULT_VEHTYPE" speedFactor="1.04" vaporized=""/>
    <tripinfo id="116" depart="14.00" departLane="4_3way_11to3way_10_0" departPos="5.10" departSpeed="0.00" departDelay="0.36" arrival="103.00" arrivalLane="248_4way_148to4way_168_0" arrivalPos="85.60" arrivalSpeed="13.35" duration="89.00" routeLength="1075.13" waitingTime="0.00" waitingCount="0" stopTime="0.00" timeLoss="8.97" rerouteNo="0" devices="tripinfo_116" vType="DEFAULT_VEHTYPE" speedFactor="0.99" vaporized=""/>
    <tripinfo id="400" depart="48.00" departLane="552_4way_51to4way_31_0" departPos="5.10" departSpeed="0.00" departDelay="0.96" arrival="103.00" arrivalLane="27_3way_15to3way_16_0" arrivalPos="85.60" arrivalSpeed="15.42" duration="55.00" routeLength="680.29" waitingTime="0.00" waitingCount="0" stopTime="0.00" timeLoss="11.04" rerouteNo="0" devices="tripinfo_400" vType="DEFAULT_VEHTYPE" speedFactor="1.15" vaporized=""/>
    <tripinfo id="430" depart="51.00" departLane="231_4way_137to4way_157_0" departPos="5.10" departSpeed="0.00" departDelay="0.43" arrival="103.00" arrivalLane="412_4way_237to4way_257_0" arrivalPos="85.60" arrivalSpeed="12.34" duration="52.00" routeLength="580.50" waitingTime="0.00" waitingCount="0" stopTime="0.00" timeLoss="5.28" rerouteNo="0" devices="tripinfo_430" vType="DEFAULT_VEHTYPE" speedFactor="0.90" vaporized=""/>
    <tripinfo id="420" depart="50.00" departLane="142_3way_80to4way_81_0" departPos="5.10" departSpeed="0.00" departDelay="0.61" arrival="108.00" arrivalLane="744_4way_85to4way_86_0" arrivalPos="85.60" arrivalSpeed="12.59" duration="58.00" routeLength="580.50" waitingTime="6.00" waitingCount="1" stopTime="0.00" timeLoss="14.72" rerouteNo="0" devices="tripinfo_420" vType="DEFAULT_VEHTYPE" speedFactor="0.98" vaporized=""/>
    <tripinfo id="637" depart="75.00" departLane="327_4way_193to4way_194_0" departPos="5.10" departSpeed="0.00" departDelay="0.09" arrival="111.00" arrivalLane="225_4way_154to4way_134_0" arrivalPos="85.60" arrivalSpeed="12.08" duration="36.00" routeLength="375.13" waitingTime="0.00" waitingCount="0" stopTime="0.00" timeLoss="6.37" rerouteNo="0" devices="tripinfo_637" vType="DEFAULT_VEHTYPE" speedFactor="0.94" vaporized=""/>
    <tripinfo id="339" depart="40.00" departLane="620_4way_345to4way_365_0" departPos="5.10" departSpeed="0.00" departDelay="0.13" arrival="113.00" arrivalLane="107_3way_390to3way_391_0" arrivalPos="85.60" arrivalSpeed="14.11" duration="73.00" routeLength="775.13" waitingTime="7.00" waitingCount="1" stopTime="0.00" timeLoss="18.12" rerouteNo="0" devices="tripinfo_339" vType="DEFAULT_VEHTYPE" speedFactor="1.03" vaporized=""/>
    <tripinfo id="741" depart="88.00" departLane="40_4way_38to3way_18_0" departPos="5.10" departSpeed="0.00" departDelay="0.86" arrival="113.00" arrivalLane="31_3way_17to3way_16_0" arrivalPos="85.60" arrivalSpeed="14.32" duration="25.00" routeLength="275.13" waitingTime="0.00" waitingCount="0" stopTime="0.00" timeLoss="6.12" rerouteNo="0" devices="tripinfo_741" vType="DEFAULT_VEHTYPE" speedFactor="1.12" vaporized=""/>
    <tripinfo id="370" depart="44.00" departLane="30_4way_158to3way_159_0" departPos="5.10" departSpeed="0.00" departDelay="0.49" arrival="116.00" arrivalLane="105_3way_59to3way_39_0" arrivalPos="85.60" arrivalSpeed="13.12" duration="72.00" routeLength="675.13" waitingTime="11.00" waitingCount="1" stopTime="0.00" timeLoss="20.39" rerouteNo="0" devices="tripinfo_370" vType="DEFAULT_VEHTYPE" speedFactor="0.96" vaporized=""/>
    <tripinfo id="649" depart="77.00" departLane="117_3way_395to3way_396_0" departPos="5.10" departSpeed="0.00" departDelay="0.68" arrival="121.00" arrivalLane="647_4way_378to4way_358_0" arrivalPos="85.60" arrivalSpeed="12.73" duration="44.00" routeLength="475.13" waitingTime="0.00" waitingCount="0" stopTime="0.00" timeLoss="6.29" rerouteNo="0" devices="tripinfo_649" vType="DEFAULT_VEHTYPE" speedFactor="0.92" vaporized=""/>
    <tripinfo id="386" depart="46.00" departLane="25_3way_140to3way_160_0" departPos="5.10" departSpeed="0.00" departDelay="0.61" arrival="123.00" arrivalLane="66_3way_280to4way_281_0" arrivalPos="85.60" arrivalSpeed="10.87" duration="77.00" routeLength="775.13" waitingTime="0.00" waitingCount="0" stopTime="0.00" timeLoss="7.41" rerouteNo="0" devices="tripinfo_386" vType="DEFAULT_VEHTYPE" speedFactor="0.82" vaporized=""/>
    <tripinfo id="884" depart="104.00" departLane="315_4way_187to4way_188_0" departPos="5.10" departSpeed="0.00" departDelay="0.04" arrival="123.00" arrivalLane="317_4way_188to4way_189_0" arrivalPos="85.60" arrivalSpeed="11.98" duration="19.00" routeLength="180.50" waitingTime="0.00" waitingCount="0" stopTime="0.00" timeLoss="3.20" rerouteNo="0" devices="tripinfo_884" vType="DEFAULT_VEHTYPE" speedFactor="0.87" vaporized=""/>
    <tripinfo id="891" depart="105.00" departLane="51_3way_239to3way_219_0" departPos="5.10" departSpeed="0.00" departDelay="0.22" arrival="125.00" arrivalLane="52_3way_219to4way_218_0" arrivalPos="85.60" arrivalSpeed="11.94" duration="20.00" routeLength="175.13" waitingTime="0.00" waitingCount="0" stopTime="0.00" timeLoss="5.36" rerouteNo="0" devices="tripinfo_891" vType="DEFAULT_VEHTYPE" speedFactor="0.90" vaporized=""/>
    <tripinfo id="973" depart="117.00" departLane="69_3way_4to3way_3_0" departPos="5.10" departSpeed="0.00" departDelay="2.57" arrival="127.00" arrivalLane="69_3way_4to3way_3_0" arrivalPos="85.60" arrivalSpeed="12.73" duration="10.00" routeLength="80.50" waitingTime="0.00" waitingCount="0" stopTime="0.00" timeLoss="2.84" rerouteNo="0" devices="tripinfo_973" vType="DEFAULT_VEHTYPE" speedFactor="0.93" vaporized=""/>
    <tripinfo id="26" depart="4.00" departLane="115_3way_394to3way_395_0" departPos="5.10" departSpeed="0.00" departDelay="0.94" arrival="130.00" arrivalLane="530_4way_318to4way_298_0" arrivalPos="85.60" arrivalSpeed="5.50" duration="126.00" routeLength="875.13" waitingTime="51.00" waitingCount="1" stopTime="0.00" timeLoss="64.51" rerouteNo="0" devices="tripinfo_26" vType="DEFAULT_VEHTYPE" speedFactor="1.03" vaporized=""/>
    <tripinfo id="210" depart="25.00" departLane="530_4way_318to4way_298_0" departPos="5.10" departSpeed="0.00" departDelay="0.30" arrival="130.00" arrivalLane="302_4way_198to4way_178_0" arrivalPos="85.60" arrivalSpeed="5.70" duration="105.00" routeLength="680.50" waitingTime="53.00" waitingCount="1" stopTime="0.00" timeLoss="63.81" rerouteNo="0" devices="tripinfo_210" vType="DEFAULT_VEHTYPE" speedFactor="1.20" vaporized=""/>
    <tripinfo id="217" depart="26.00" departLane="209_4way_126to4way_146_0" departPos="5.10" departSpeed="0.00" departDelay="0.48" arrival="130.00" arrivalLane="245_4way_147to4way_148_0" arrivalPos="85.60" arrivalSpeed="4.81" duration="104.00" routeLength="275.13" waitingTime="66.00" waitingCount="2" stopTime="0.00" timeLoss="85.27" rerouteNo="0" devices="tripinfo_217" vType="DEFAULT_VEHTYPE" speedFactor="1.12" vaporized=""/>
    <tripinfo id="478" depart="57.00" departLane="315_4way_188to4way_187_0" departPos="5.10" departSpeed="0.00" departDelay="0.79" arrival="130.00" arrivalLane="351_4way_207to4way_227_0" arrivalPos="85.60" arrivalSpeed="6.33" duration="73.00" routeLength="275.13" waitingTime="38.00" waitingCount="1" stopTime="0.00" timeLoss="51.23" rerouteNo="0" devices="tripinfo_478" vType="DEFAULT_VEHTYPE" speedFactor="0.96" vaporized=""/>
    <tripinfo id="585" depart="69.00" departLane="344_4way_205to4way_204_0" departPos="5.10" departSpeed="0.00" departDelay="0.20" arrival="130.00" arrivalLane="343_4way_203to4way_223_0" arrivalPos="85.60" arrivalSpeed="6.44" duration="61.00" routeLength="275.13" waitingTime="27.00" waitingCount="1" stopTime="0.00" timeLoss="37.18" rerouteNo="0" devices="tripinfo_585" vType="DEFAULT_VEHTYPE" speedFactor="0.88" vaporized=""/>
    <tripinfo id="887" depart="105.00" departLane="8_3way_100to3way_80_0" departPos="5.10" departSpeed="0.00" departDelay="0.69" arrival="130.00" arrivalLane="126_3way_60to3way_40_0" arrivalPos="85.60" arrivalSpeed="12.36" duration="25.00" routeLength="280.50" waitingTime="0.00" waitingCount="0" stopTime="0.00" timeLoss="3.38" rerouteNo="0" devices="tripinfo_887" vType="DEFAULT_VEHTYPE" speedFactor="0.96" vaporized=""/>
    <tripinfo id="906" depart="107.00" departLane="669_4way_58to4way_38_0" departPos="5.10" departSpeed="0.00" departDelay="0.45" arrival="130.00" arrivalLane="669_4way_58to4way_38_0" arrivalPos="85.60" arrivalSpeed="4.62" duration="23.00" routeLength="80.50" waitingTime="9.00" waitingCount="1" stopTime="0.00" timeLoss="16.92" rerouteNo="0" devices="tripinfo_906" vType="DEFAULT_VEHTYPE" speedFactor="0.95" vaporized=""/>