<?xml version="1.0" encoding="UTF-8"?>

<!-- generated on 2023-07-05 17:00:19 by Eclipse SUMO sumo Version 1.12.0
<configuration xmlns:xsi="http://www.w3.org/2001/XMLSchema-instance" xsi:noNamespaceSchemaLocation="http://sumo.dlr.de/xsd/sumoConfiguration.xsd">

    <input>
        <net-file value="../../data_generation/sq.net.xml"/>
        <route-files value="../../data_generation/sq.rou.xml"/>
    </input>

    <output>
        <tripinfo-output value="tripinfo.xml"/>
        <statistic-output value="statistic.xml"/>
    </output>

    <time>
        <begin value="0"/>
        <end value="3600"/>
    </time>

    <processing>
        <time-to-teleport value="-1"/>
    </processing>

    <traci_server>
        <remote-port value="49651"/>
    </traci_server>

    <random_number>
        <seed value="1395"/>
    </random_number>

    <gui_only>
        <gui-settings-file value="../../data_generation/view_HY_0402.xml"/>
    </gui_only>

</configuration>
-->

<tripinfos xmlns:xsi="http://www.w3.org/2001/XMLSchema-instance" xsi:noNamespaceSchemaLocation="http://sumo.dlr.de/xsd/tripinfo_file.xsd">
    <tripinfo id="22" depart="3.00" departLane="478_4way_291to4way_271_0" departPos="5.10" departSpeed="0.00" departDelay="0.36" arrival="20.00" arrivalLane="478_4way_291to4way_271_0" arrivalPos="185.60" arrivalSpeed="12.66" duration="17.00" routeLength="180.50" waitingTime="0.00" waitingCount="0" stopTime="0.00" timeLoss="3.66" rerouteNo="0" devices="tripinfo_22" vType="DEFAULT_VEHTYPE" speedFactor="1.00" vaporized=""/>
    <tripinfo id="18" depart="6.00" departLane="359_4way_230to4way_210_0" departPos="5.10" departSpeed="0.00" departDelay="3.84" arrival="39.00" arrivalLane="322_4way_210to4way_190_0" arrivalPos="185.60" arrivalSpeed="12.94" duration="33.00" routeLength="380.50" waitingTime="0.00" waitingCount="0" stopTime="0.00" timeLoss="4.25" rerouteNo="0" devices="tripinfo_18" vType="DEFAULT_VEHTYPE" speedFactor="0.96" vaporized=""/>
    <tripinfo id="160" depart="20.00" departLane="90_3way_382to4way_362_0" departPos="5.10" departSpeed="0.00" departDelay="0.80" arrival="39.00" arrivalLane="90_3way_382to4way_362_0" arrivalPos="185.60" arrivalSpeed="11.36" duration="19.00" routeLength="180.50" waitingTime="0.00" waitingCount="0" stopTime="0.00" timeLoss="3.68" rerouteNo="0" devices="tripinfo_160" vType="DEFAULT_VEHTYPE" speedFactor="0.88" vaporized=""/>
    <tripinfo id="167" depart="21.00" departLane="697_4way_54to4way_74_0" departPos="5.10" departSpeed="0.00" departDelay="0.96" arrival="40.00" arrivalLane="697_4way_54to4way_74_0" arrivalPos="185.60" arrivalSpeed="11.70" duration="19.00" routeLength="180.50" waitingTime="0.00" waitingCount="0" stopTime="0.00" timeLoss="3.21" rerouteNo="0" devices="tripinfo_167" vType="DEFAULT_VEHTYPE" speedFactor="0.85" vaporized=""/>
    <tripinfo id="198" depart="24.00" departLane="540_4way_324to4way_304_0" departPos="5.10" departSpeed="0.00" departDelay="0.24" arrival="43.00" arrivalLane="540_4way_324to4way_304_0" arrivalPos="185.60" arrivalSpeed="11.25" duration="19.00" routeLength="180.50" waitingTime="0.00" waitingCount="0" stopTime="0.00" timeLoss="3.72" rerouteNo="0" devices="tripinfo_198" vType="DEFAULT_VEHTYPE" speedFactor="0.87" vaporized=""/>
    <tripinfo id="27" depart="4.00" departLane="41_3way_180to3way_200_0" departPos="5.10" departSpeed="0.00" departDelay="0.76" arrival="52.00" arrivalLane="54_3way_220to4way_221_0" arrivalPos="185.60" arrivalSpeed="14.07" duration="48.00" routeLength="575.13" waitingTime="0.00" waitingCount="0" stopTime="0.00" timeLoss="6.67" rerouteNo="0" devices="tripinfo_27" vType="DEFAULT_VEHTYPE" speedFactor="1.03" vaporized=""/>
    <tripinfo id="303" depart="37.00" departLane="148_4way_102to4way_103_0" departPos="5.10" departSpeed="0.00" departDelay="0.64" arrival="54.00" arrivalLane="148_4way_102to4way_103_0" arrivalPos="185.60" arrivalSpeed="13.76" duration="17.00" routeLength="180.50" waitingTime="0.00" waitingCount="0" stopTime="0.00" timeLoss="3.95" rerouteNo="0" devices="tripinfo_303" vType="DEFAULT_VEHTYPE" speedFactor="1.02" vaporized=""/>
    <tripinfo id="332" depart="40.00" departLane="542_4way_305to4way_325_0" departPos="5.10" departSpeed="0.00" departDelay="0.16" arrival="60.00" arrivalLane="542_4way_305to4way_325_0" arrivalPos="185.60" arrivalSpeed="10.31" duration="20.00" routeLength="180.50" waitingTime="0.00" waitingCount="0" stopTime="0.00" timeLoss="3.62" rerouteNo="0" devices="tripinfo_332" vType="DEFAULT_VEHTYPE" speedFactor="0.83" vaporized=""/>
    <tripinfo id="445" depart="54.00" departLane="465_4way_267to4way_266_0" departPos="5.10" departSpeed="0.00" departDelay="0.60" arrival="71.00" arrivalLane="465_4way_267to4way_266_0" arrivalPos="185.60" arrivalSpeed="13.68" duration="17.00" routeLength="180.50" waitingTime="0.00" waitingCount="0" stopTime="0.00" timeLoss="3.78" rerouteNo="0" devices="tripinfo_445" vType="DEFAULT_VEHTYPE" speedFactor="1.02" vaporized=""/>
    <tripinfo id="324" depart="39.00" departLane="120_3way_396to4way_376_0" departPos="5.10" departSpeed="0.00" departDelay="0.12" arrival="72.00" arrivalLane="666_4way_376to4way_375_0" arrivalPos="185.60" arrivalSpeed="13.26" duration="33.00" routeLength="375.13" waitingTime="0.00" waitingCount="0" stopTime="0.00" timeLoss="6.13" rerouteNo="0" devices="tripinfo_324" vType="DEFAULT_VEHTYPE" speedFactor="1.05" vaporized=""/>
    <tripinfo id="351" depart="43.00" departLane="73_3way_339to3way_319_0" departPos="5.10" departSpeed="0.00" departDelay="0.88" arrival="80.00" arrivalLane="67_3way_319to3way_299_0" arrivalPos="185.60" arrivalSpeed="10.82" duration="37.00" routeLength="380.50" waitingTime="0.00" waitingCount="0" stopTime="0.00" timeLoss="4.33" rerouteNo="0" devices="tripinfo_351" vType="DEFAULT_VEHTYPE" speedFactor="0.85" vaporized=""/>
    <tripinfo id="156" depart="19.00" departLane="81_3way_379to3way_359_0" departPos="5.10" departSpeed="0.00" departDelay="0.28" arrival="87.00" arrivalLane="67_3way_319to3way_299_0" arrivalPos="185.60" arrivalSpeed="12.52" duration="68.00" routeLength="780.50" waitingTime="0.00" waitingCount="0" stopTime="0.00" timeLoss="6.03" rerouteNo="0" devices="tripinfo_156" vType="DEFAULT_VEHTYPE" speedFactor="0.91" vaporized=""/>
    <tripinfo id="610" depart="74.00" departLane="413_4way_238to4way_258_0" departPos="5.10" departSpeed="0.00" departDelay="0.80" arrival="92.00" arrivalLane="413_4way_238to4way_258_0" arrivalPos="185.60" arrivalSpeed="12.81" duration="18.00" routeLength="180.50" waitingTime="0.00" waitingCount="0" stopTime="0.00" timeLoss="3.37" rerouteNo="0" devices="tripinfo_610" vType="DEFAULT_VEHTYPE" speedFactor="0.93" vaporized=""/>
    <tripinfo id="531" depart="64.00" departLane="124_3way_5to3way_4_0" departPos="5.10" departSpeed="0.00" departDelay="0.28" arrival="94.00" arrivalLane="69_3way_4to3way_3_0" arrivalPos="185.60" arrivalSpeed="14.27" duration="30.00" routeLength="380.50" waitingTime="0.00" waitingCount="0" stopTime="0.00" timeLoss="4.74" rerouteNo="0" devices="tripinfo_531" vType="DEFAULT_VEHTYPE" speedFactor="1.11" vaporized=""/>
    <tripinfo id="7" depart="1.00" departLane="77_3way_359to3way_339_0" departPos="5.10" departSpeed="0.00" departDelay="0.16" arrival="98.00" arrivalLane="55_3way_259to3way_239_0" arrivalPos="185.60" arrivalSpeed="12.74" duration="97.00" routeLength="1180.50" waitingTime="0.00" waitingCount="0" stopTime="0.00" timeLoss="7.47" rerouteNo="0" devices="tripinfo_7" vType="DEFAULT_VEHTYPE" speedFactor="0.95" vaporized=""/>
    <tripinfo id="149" depart="18.00" departLane="739_4way_78to4way_98_0" departPos="5.10" departSpeed="0.00" departDelay="0.12" arrival="99.00" arrivalLane="267_4way_158to4way_178_0" arrivalPos="185.60" arrivalSpeed="12.88" duration="81.00" routeLength="980.50" waitingTime="0.00" waitingCount="0" stopTime="0.00" timeLoss="6.58" rerouteNo="0" devices="tripinfo_149" vType="DEFAULT_VEHTYPE" speedFactor="0.95" vaporized=""/>
    <tripinfo id="318" depart="39.00" departLane="109_3way_392to3way_391_0" departPos="5.10" departSpeed="0.00" departDelay="0.84" arrival="100.00" arrivalLane="101_3way_389to3way_388_0" arrivalPos="185.60" arrivalSpeed="13.42" duration="61.00" routeLength="780.50" waitingTime="0.00" waitingCount="0" stopTime="0.00" timeLoss="5.45" rerouteNo="0" devices="tripinfo_318" vType="DEFAULT_VEHTYPE" speedFactor="1.01" vaporized=""/>
    <tripinfo id="163" depart="20.00" departLane="179_4way_132to4way_112_0" departPos="5.10" departSpeed="0.00" departDelay="0.44" arrival="103.00" arrivalLane="571_4way_52to4way_32_0" arrivalPos="185.60" arrivalSpeed="12.27" duration="83.00" routeLength="980.50" waitingTime="0.00" waitingCount="0" stopTime="0.00" timeLoss="7.22" rerouteNo="0" devices="tripinfo_163" vType="DEFAULT_VEHTYPE" speedFactor="0.94" vaporized=""/>
    <tripinfo id="207" depart="25.00" departLane="380_4way_222to4way_242_0" departPos="5.10" departSpeed="0.00" departDelay="0.16" arrival="103.00" arrivalLane="572_4way_322to4way_321_0" arrivalPos="185.60" arrivalSpeed="16.98" duration="78.00" routeLength="1180.30" waitingTime="0.00" waitingCount="0" stopTime="0.00" timeLoss="8.43" rerouteNo="0" devices="tripinfo_207" vType="DEFAULT_VEHTYPE" speedFactor="1.24" vaporized=""/>
    <tripinfo id="533" depart="64.00" departLane="197_4way_118to4way_98_0" departPos="5.10" departSpeed="0.00" departDelay="0.04" arrival="111.00" arrivalLane="139_4way_78to3way_79_0" arrivalPos="185.60" arrivalSpeed="14.34" duration="47.00" routeLength="580.30" waitingTime="0.00" waitingCount="0" stopTime="0.00" timeLoss="7.05" rerouteNo="0" devices="tripinfo_533" vType="DEFAULT_VEHTYPE" speedFactor="1.09" vaporized=""/>
    <tripinfo id="210" depart="26.00" departLane="530_4way_318to4way_298_0" departPos="5.10" departSpeed="0.00" departDelay="0.80" arrival="116.00" arrivalLane="302_4way_198to4way_178_0" arrivalPos="185.60" arrivalSpeed="15.49" duration="90.00" routeLength="1380.50" waitingTime="0.00" waitingCount="0" stopTime="0.00" timeLoss="6.72" rerouteNo="0" devices="tripinfo_210" vType="DEFAULT_VEHTYPE" speedFactor="1.20" vaporized=""/>
    <tripinfo id="906" depart="109.00" departLane="669_4way_58to4way_38_0" departPos="5.10" departSpeed="0.00" departDelay="0.28" arrival="126.00" arrivalLane="669_4way_58to4way_38_0" arrivalPos="185.60" arrivalSpeed="12.37" duration="17.00" routeLength="180.50" waitingTime="0.00" waitingCount="0" stopTime="0.00" timeLoss="3.37" rerouteNo="0" devices="tripinfo_906" vType="DEFAULT_VEHTYPE" speedFactor="0.95" vaporized=""/>
    <tripinfo id="126" depart="16.00" departLane="328_4way_193to4way_213_0" departPos="5.10" departSpeed="0.00" departDelay="0.88" arrival="127.00" arrivalLane="560_4way_313to4way_333_0" arrivalPos="185.60" arrivalSpeed="13.73" duration="111.00" routeLength="1380.50" waitingTime="0.00" waitingCount="0" stopTime="0.00" timeLoss="11.30" rerouteNo="0" devices="tripinfo_126" vType="DEFAULT_VEHTYPE" speedFactor="1.01" vaporized=""/>
    <tripinfo id="675" depart="81.00" departLane="421_4way_263to4way_243_0" departPos="5.10" departSpeed="0.00" departDelay="0.00" arrival="132.00" arrivalLane="343_4way_223to4way_203_0" arrivalPos="185.60" arrivalSpeed="12.41" duration="51.00" routeLength="580.50" waitingTime="0.00" waitingCount="0" stopTime="0.00" timeLoss="4.89" rerouteNo="0" devices="tripinfo_675" vType="DEFAULT_VEHTYPE" speedFactor="0.91" vaporized=""/>
    <tripinfo id="518" depart="63.00" departLane="536_4way_322to4way_302_0" departPos="5.10" departSpeed="0.00" departDelay="0.84" arrival="134.00" arrivalLane="380_4way_242to4way_222_0" arrivalPos="185.60" arrivalSpeed="15.44" duration="71.00" routeLength="980.50" waitingTime="0.00" waitingCount="0" stopTime="0.00" timeLoss="10.17" rerouteNo="0" devices="tripinfo_518" vType="DEFAULT_VEHTYPE" speedFactor="1.17" vaporized=""/>
    <tripinfo id="956" depart="119.00" departLane="152_4way_103to4way_123_0" departPos="5.10" departSpeed="0.00" departDelay="4.28" arrival="137.00" arrivalLane="152_4way_103to4way_123_0" arrivalPos="185.60" arrivalSpeed="11.96" duration="18.00" routeLength="180.50" waitingTime="0.00" waitingCount="0" stopTime="0.00" timeLoss="3.64" rerouteNo="0" devices="tripinfo_956" vType="DEFAULT_VEHTYPE" speedFactor="0.94" vaporized=""/>
    <tripinfo id="973" depart="119.00" departLane="69_3way_4to3way_3_0" departPos="5.10" departSpeed="0.00" departDelay="2.24" arrival="137.00" arrivalLane="69_3way_4to3way_3_0" arrivalPos="185.60" arrivalSpeed="12.82" duration="18.00" routeLength="180.50" waitingTime="0.00" waitingCount="0" stopTime="0.00" timeLoss="3.71" rerouteNo="0" devices="tripinfo_973" vType="DEFAULT_VEHTYPE" speedFactor="0.93" vaporized=""/>
    <tripinfo id="26" depart="4.00" departLane="115_3way_394to3way_395_0" departPos="5.10" departSpeed="0.00" departDelay="0.88" arrival="140.00" arrivalLane="530_4way_318to4way_298_0" arrivalPos="185.60" arrivalSpeed="14.16" duration="136.00" routeLength="1775.13" waitingTime="0.00" waitingCount="0" stopTime="0.00" timeLoss="11.02" rerouteNo="0" devices="tripinfo_26" vType="DEFAULT_VEHTYPE" speedFactor="1.03" vaporized=""/>
    <tripinfo id="67" depart="9.00" departLane="628_4way_369to4way_349_0" departPos="5.10" departSpeed="0.00" departDelay="0.96" arrival="148.00" arrivalLane="355_4way_229to4way_209_0" arrivalPos="185.60" arrivalSpeed="12.23" duration="139.00" routeLength="1580.50" waitingTime="0.00" waitingCount="0" stopTime="0.00" timeLoss="9.45" rerouteNo="0" devices="tripinfo_67" vType="DEFAULT_VEHTYPE" speedFactor="0.88" vaporized=""/>
    <tripinfo id="175" depart="21.00" departLane="23_3way_15to3way_14_0" departPos="5.10" departSpeed="0.00" departDelay="0.00" arrival="148.00" arrivalLane="726_4way_71to4way_91_0" arrivalPos="185.60" arrivalSpeed="13.66" duration="127.00" routeLength="1575.13" waitingTime="0.00" waitingCount="0" stopTime="0.00" timeLoss="10.26" rerouteNo="0" devices="tripinfo_175" vType="DEFAULT_VEHTYPE" speedFactor="0.99" vaporized=""/>
    <tripinfo id="806" depart="97.00" departLane="386_4way_245to4way_225_0" departPos="5.10" departSpeed="0.00" departDelay="0.28" arrival="152.00" arrivalLane="277_4way_185to4way_165_0" arrivalPos="185.60" arrivalSpeed="15.99" duration="55.00" routeLength="780.50" waitingTime="0.00" waitingCount="0" stopTime="0.00" timeLoss="5.81" rerouteNo="0" devices="tripinfo_806" vType="DEFAULT_VEHTYPE" speedFactor="1.15" vaporized=""/>
    <tripinfo id="430" depart="52.00" departLane="231_4way_137to4way_157_0" departPos="5.10" departSpeed="0.00" departDelay="0.40" arrival="155.00" arrivalLane="412_4way_237to4way_257_0" arrivalPos="185.60" arrivalSpeed="11.62" duration="103.00" routeLength="1180.50" waitingTime="0.00" waitingCount="0" stopTime="0.00" timeLoss="7.97" rerouteNo="0" devices="tripinfo_430" vType="DEFAULT_VEHTYPE" speedFactor="0.90" vaporized=""/>
    <tripinfo id="887" depart="107.00" departLane="8_3way_100to3way_80_0" departPos="5.10" departSpeed="0.00" departDelay="0.56" arrival="156.00" arrivalLane="126_3way_60to3way_40_0" arrivalPos="185.60" arrivalSpeed="12.10" duration="49.00" routeLength="580.50" waitingTime="0.00" waitingCount="0" stopTime="0.00" timeLoss="5.07" rerouteNo="0" devices="tripinfo_887" vType="DEFAULT_VEHTYPE" speedFactor="0.96" vaporized=""/>
    <tripinfo id="1171" depart="141.00" departLane="476_4way_270to4way_290_0" departPos="5.10" departSpeed="0.00" departDelay="0.48" arrival="158.00" arrivalLane="476_4way_270to4way_290_0" arrivalPos="185.60" arrivalSpeed="12.97" duration="17.00" routeLength="180.50" waitingTime="0.00" waitingCount="0" stopTime="0.00" timeLoss="3.46" rerouteNo="0" devices="tripinfo_1171" vType="DEFAULT_VEHTYPE" speedFactor="0.97" vaporized=""/>
    <tripinfo id="1083" depart="130.00" departLane="162_4way_106to4way_86_0" departPos="5.10" departSpeed="0.00" departDelay="0.04" arrival="160.00" arrivalLane="716_4way_86to4way_66_0" arrivalPos="185.60" arrivalSpeed="14.55" duration="30.00" routeLength="380.50" waitingTime="0.00" waitingCount="0" stopTime="0.00" timeLoss="4.30" rerouteNo="0" devices="tripinfo_1083" vType="DEFAULT_VEHTYPE" speedFactor="1.07" vaporized=""/>
    <tripinfo id="1195" depart="144.00" departLane="601_4way_354to4way_334_0" departPos="5.10" departSpeed="0.00" departDelay="0.60" arrival="162.00" arrivalLane="601_4way_354to4way_334_0" arrivalPos="185.60" arrivalSpeed="11.64" duration="18.00" routeLength="180.50" waitingTime="0.00" waitingCount="0" stopTime="0.00" timeLoss="3.92" rerouteNo="0" devices="tripinfo_1195" vType="DEFAULT_VEHTYPE" speedFactor="0.93" vaporized=""/>
    <tripinfo id="649" depart="78.00" departLane="117_3way_395to3way_396_0" departPos="5.10" departSpeed="0.00" departDelay="0.12" arrival="164.00" arrivalLane="647_4way_378to4way_358_0" arrivalPos="185.60" arrivalSpeed="11.82" duration="86.00" routeLength="975.13" waitingTime="0.00" waitingCount="0" stopTime="0.00" timeLoss="8.65" rerouteNo="0" devices="tripinfo_649" vType="DEFAULT_VEHTYPE" speedFactor="0.92" vaporized=""/>
    <tripinfo id="1261" depart="152.00" departLane="602_4way_335to4way_336_0" departPos="5.10" departSpeed="0.00" departDelay="0.68" arrival="169.00" arrivalLane="602_4way_335to4way_336_0" arrivalPos="185.60" arrivalSpeed="13.95" duration="17.00" routeLength="180.50" waitingTime="0.00" waitingCount="0" stopTime="0.00" timeLoss="3.38" rerouteNo="0" devices="tripinfo_1261" vType="DEFAULT_VEHTYPE" speedFactor="1.03" vaporized=""/>
    <tripinfo id="1259" depart="152.00" departLane="152_4way_123to4way_103_0" departPos="5.10" departSpeed="0.00" departDelay="0.92" arrival="170.00" arrivalLane="152_4way_123to4way_103_0" arrivalPos="185.60" arrivalSpeed="11.64" duration="18.00" routeLength="180.50" waitingTime="0.00" waitingCount="0" stopTime="0.00" timeLoss="3.14" rerouteNo="0" devices="tripinfo_1259" vType="DEFAULT_VEHTYPE" speedFactor="0.88" vaporized=""/>
    <tripinfo id="728" depart="88.00" departLane="548_4way_328to4way_308_0" departPos="5.10" departSpeed="0.00" departDelay="0.64" arrival="171.00" arrivalLane="392_4way_248to4way_228_0" arrivalPos="185.60" arrivalSpeed="12.23" duration="83.00" routeLength="980.50" waitingTime="0.00" waitingCount="0" stopTime="0.00" timeLoss="6.63" rerouteNo="0" devices="tripinfo_728" vType="DEFAULT_VEHTYPE" speedFactor="0.93" vaporized=""/>
    <tripinfo id="1096" depart="132.00" departLane="739_4way_78to4way_98_0" departPos="5.10" departSpeed="0.00" departDelay="0.48" arrival="172.00" arrivalLane="196_4way_118to4way_138_0" arrivalPos="185.60" arrivalSpeed="16.49" duration="40.00" routeLength="580.50" waitingTime="0.00" waitingCount="0" stopTime="0.00" timeLoss="4.74" rerouteNo="0" devices="tripinfo_1096" vType="DEFAULT_VEHTYPE" speedFactor="1.19" vaporized=""/>
    <tripinfo id="594" depart="72.00" departLane="701_4way_56to4way_76_0" departPos="5.10" departSpeed="0.00" departDelay="0.72" arrival="174.00" arrivalLane="298_4way_176to4way_177_0" arrivalPos="185.60" arrivalSpeed="14.91" duration="102.00" routeLength="1375.13" waitingTime="0.00" waitingCount="0" stopTime="0.00" timeLoss="8.93" rerouteNo="0" devices="tripinfo_594" vType="DEFAULT_VEHTYPE" speedFactor="1.07" vaporized=""/>
    <tripinfo id="1138" depart="137.00" departLane="583_4way_326to4way_346_0" departPos="5.10" departSpeed="0.00" departDelay="0.44" arrival="175.00" arrivalLane="622_4way_346to4way_366_0" arrivalPos="185.60" arrivalSpeed="10.70" duration="38.00" routeLength="380.50" waitingTime="0.00" waitingCount="0" stopTime="0.00" timeLoss="4.28" rerouteNo="0" devices="tripinfo_1138" vType="DEFAULT_VEHTYPE" speedFactor="0.83" vaporized=""/>
    <tripinfo id="89" depart="11.00" departLane="15_3way_13to3way_12_0" departPos="5.10" departSpeed="0.00" departDelay="0.32" arrival="177.00" arrivalLane="291_4way_172to4way_192_0" arrivalPos="185.60" arrivalSpeed="12.20" duration="166.00" routeLength="1975.13" waitingTime="0.00" waitingCount="0" stopTime="0.00" timeLoss="12.68" rerouteNo="0" devices="tripinfo_89" vType="DEFAULT_VEHTYPE" speedFactor="0.93" vaporized=""/>
    <tripinfo id="1341" depart="161.00" departLane="238_4way_163to4way_143_0" departPos="5.10" departSpeed="0.00" departDelay="0.08" arrival="179.00" arrivalLane="238_4way_163to4way_143_0" arrivalPos="185.60" arrivalSpeed="12.65" duration="18.00" routeLength="180.50" waitingTime="0.00" waitingCount="0" stopTime="0.00" timeLoss="3.58" rerouteNo="0" devices="tripinfo_1341" vType="DEFAULT_VEHTYPE" speedFactor="0.92" vaporized=""/>
    <tripinfo id="98" depart="12.00" departLane="341_4way_222to4way_202_0" departPos="5.10" departSpeed="0.00" departDelay="0.24" arrival="186.00" arrivalLane="376_4way_42to4way_22_0" arrivalPos="185.60" arrivalSpeed="11.00" duration="174.00" routeLength="1980.50" waitingTime="0.00" waitingCount="0" stopTime="0.00" timeLoss="12.01" rerouteNo="0" devices="tripinfo_98" vType="DEFAULT_VEHTYPE" speedFactor="0.88" vaporized=""/>
    <tripinfo id="549" depart="66.00" departLane="722_4way_69to4way_89_0" departPos="5.10" departSpeed="0.00" departDelay="0.12" arrival="188.00" arrivalLane="354_4way_209to4way_210_0" arrivalPos="185.60" arrivalSpeed="13.51" duration="122.00" routeLength="1575.13" waitingTime="0.00" waitingCount="0" stopTime="0.00" timeLoss="10.10" rerouteNo="0" devices="tripinfo_549" vType="DEFAULT_VEHTYPE" speedFactor="1.03" vaporized=""/>
    <tripinfo id="903" depart="112.00" departLane="10_3way_12to3way_11_0" departPos="5.10" departSpeed="0.00" departDelay="3.64" arrival="190.00" arrivalLane="141_3way_8to4way_28_0" arrivalPos="185.60" arrivalSpeed="13.82" duration="78.00" routeLength="975.13" waitingTime="0.00" waitingCount="0" stopTime="0.00" timeLoss="8.53" rerouteNo="0" devices="tripinfo_903" vType="DEFAULT_VEHTYPE" speedFactor="1.03" vaporized=""/>
    <tripinfo id="708" depart="85.00" departLane="90_3way_382to4way_362_0" departPos="5.10" departSpeed="0.00" departDelay="0.04" arrival="194.00" arrivalLane="416_4way_242to4way_241_0" arrivalPos="185.60" arrivalSpeed="15.05" duration="109.00" routeLength="1575.13" waitingTime="0.00" waitingCount="0" stopTime="0.00" timeLoss="10.40" rerouteNo="0" devices="tripinfo_708" vType="DEFAULT_VEHTYPE" speedFactor="1.16" vaporized=""/>
    <tripinfo id="921" depart="111.00" departLane="234_4way_161to4way_141_0" departPos="5.10" departSpeed="0.00" departDelay="0.48" arrival="194.00" arrivalLane="135_4way_61to3way_60_0" arrivalPos="185.60" arrivalSpeed="14.85" duration="83.00" routeLength="1175.13" waitingTime="0.00" waitingCount="0" stopTime="0.00" timeLoss="8.61" rerouteNo="0" devices="tripinfo_921" vType="DEFAULT_VEHTYPE" speedFactor="1.15" vaporized=""/>
    <tripinfo id="983" depart="121.00" departLane="33_3way_160to3way_180_0" departPos="5.10" departSpeed="0.00" departDelay="3.04" arrival="197.00" arrivalLane="57_3way_240to3way_260_0" arrivalPos="185.60" arrivalSpeed="14.71" duration="76.00" routeLength="980.50" waitingTime="0.00" waitingCount="0" stopTime="0.00" timeLoss="12.07" rerouteNo="0" devices="tripinfo_983" vType="DEFAULT_VEHTYPE" speedFactor="1.11" vaporized=""/>
    <tripinfo id="1082" depart="130.00" departLane="332_4way_215to4way_195_0" departPos="5.10" departSpeed="0.00" departDelay="0.16" arrival="204.00" arrivalLane="188_4way_135to4way_115_0" arrivalPos="185.60" arrivalSpeed="13.35" duration="74.00" routeLength="980.50" waitingTime="0.00" waitingCount="0" stopTime="0.00" timeLoss="6.51" rerouteNo="0" devices="tripinfo_1082" vType="DEFAULT_VEHTYPE" speedFactor="1.05" vaporized=""/>
    <tripinfo id="608" depart="73.00" departLane="61_3way_280to3way_260_0" departPos="5.10" departSpeed="0.00" departDelay="0.04" arrival="206.00" arrivalLane="7_3way_120to3way_100_0" arrivalPos="185.60" arrivalSpeed="13.87" duration="133.00" routeLength="1780.50" waitingTime="0.00" waitingCount="0" stopTime="0.00" timeLoss="9.24" rerouteNo="0" devices="tripinfo_608" vType="DEFAULT_VEHTYPE" speedFactor="1.04" vaporized=""/>
    <tripinfo id="690" depart="83.00" departLane="16_3way_12to4way_32_0" departPos="5.10" departSpeed="0.00" departDelay="0.20" arrival="208.00" arrivalLane="256_4way_152to4way_172_0" arrivalPos="185.60" arrivalSpeed="12.36" duration="125.00" routeLength="1580.50" waitingTime="0.00" waitingCount="0" stopTime="0.00" timeLoss="8.66" rerouteNo="0" devices="tripinfo_690" vType="DEFAULT_VEHTYPE" speedFactor="0.98" vaporized=""/>
    <tripinfo id="961" depart="116.00" departLane="69_3way_4to3way_3_0" departPos="5.10" departSpeed="0.00" departDelay="0.68" arrival="208.00" arrivalLane="357_4way_21to4way_41_0" arrivalPos="185.60" arrivalSpeed="11.75" duration="92.00" routeLength="975.13" waitingTime="0.00" waitingCount="0" stopTime="0.00" timeLoss="9.39" rerouteNo="0" devices="tripinfo_961" vType="DEFAULT_VEHTYPE" speedFactor="0.87" vaporized=""/>
    <tripinfo id="1596" depart="193.00" departLane="596_4way_333to4way_332_0" departPos="5.10" departSpeed="0.00" departDelay="1.48" arrival="209.00" arrivalLane="596_4way_333to4way_332_0" arrivalPos="185.60" arrivalSpeed="15.94" duration="16.00" routeLength="180.50" waitingTime="0.00" waitingCount="0" stopTime="0.00" timeLoss="4.01" rerouteNo="0" devices="tripinfo_1596" vType="DEFAULT_VEHTYPE" speedFactor="1.17" vaporized=""/>
    <tripinfo id="128" depart="16.00" departLane="550_4way_329to4way_309_0" departPos="5.10" departSpeed="0.00" departDelay="0.64" arrival="211.00" arrivalLane="722_4way_89to4way_69_0" arrivalPos="185.60" arrivalSpeed="13.35" duration="195.00" routeLength="2580.50" waitingTime="0.00" waitingCount="0" stopTime="0.00" timeLoss="12.30" rerouteNo="0" devices="tripinfo_128" vType="DEFAULT_VEHTYPE" speedFactor="1.02" vaporized=""/>
    <tripinfo id="39" depart="8.00" departLane="97_3way_387to3way_386_0" departPos="5.10" departSpeed="0.00" departDelay="3.32" arrival="212.00" arrivalLane="343_4way_223to4way_203_0" arrivalPos="185.60" arrivalSpeed="13.96" duration="204.00" routeLength="2580.30" waitingTime="0.00" waitingCount="0" stopTime="0.00" timeLoss="25.03" rerouteNo="0" devices="tripinfo_39" vType="DEFAULT_VEHTYPE" speedFactor="1.05" vaporized=""/>
    <tripinfo id="632" depart="76.00" departLane="337_4way_218to4way_198_0" departPos="5.10" departSpeed="0.00" departDelay="0.16" arrival="215.00" arrivalLane="669_4way_58to4way_38_0" arrivalPos="185.60" arrivalSpeed="13.33" duration="139.00" routeLength="1780.50" waitingTime="0.00" waitingCount="0" stopTime="0.00" timeLoss="9.44" rerouteNo="0" devices="tripinfo_632" vType="DEFAULT_VEHTYPE" speedFactor="1.00" vaporized=""/>
    <tripinfo id="1638" depart="197.00" departLane="183_4way_113to4way_93_0" departPos="5.10" departSpeed="0.00" departDelay="0.44" arrival="215.00" arrivalLane="183_4way_113to4way_93_0" arrivalPos="185.60" arrivalSpeed="13.57" duration="18.00" routeLength="180.50" waitingTime="0.00" waitingCount="0" stopTime="0.00" timeLoss="3.86" rerouteNo="0" devices="tripinfo_1638" vType="DEFAULT_VEHTYPE" speedFactor="0.98" vaporized=""/>
    <tripinfo id="619" depart="75.00" departLane="29_3way_159to3way_179_0" departPos="5.10" departSpeed="0.00" departDelay="0.72" arrival="217.00" arrivalLane="73_3way_319to3way_339_0" arrivalPos="185.60" arrivalSpeed="13.41" duration="142.00" routeLength="1780.50" waitingTime="0.00" waitingCount="0" stopTime="0.00" timeLoss="10.06" rerouteNo="0" devices="tripinfo_619" vType="DEFAULT_VEHTYPE" speedFactor="0.98" vaporized=""/>
    <tripinfo id="1678" depart="202.00" departLane="460_4way_263to4way_283_0" departPos="5.10" departSpeed="0.00" departDelay="0.64" arrival="220.00" arrivalLane="460_4way_263to4way_283_0" arrivalPos="185.60" arrivalSpeed="12.41" duration="18.00" routeLength="180.50" waitingTime="0.00" waitingCount="0" stopTime="0.00" timeLoss="4.55" rerouteNo="0" devices="tripinfo_1678" vType="DEFAULT_VEHTYPE" speedFactor="0.97" vaporized=""/>
    <tripinfo id="204" depart="25.00" departLane="19_3way_14to3way_13_0" departPos="5.10" departSpeed="0.00" departDelay="0.52" arrival="221.00" arrivalLane="322_4way_190to4way_210_0" arrivalPos="185.60" arrivalSpeed="6.90" duration="196.00" routeLength="2775.13" waitingTime="0.00" waitingCount="0" stopTime="0.00" timeLoss="16.41" rerouteNo="0" devices="tripinfo_204" vType="DEFAULT_VEHTYPE" speedFactor="1.12" vaporized=""/>
    <tripinfo id="1030" depart="126.00" departLane="158_4way_105to4way_125_0" departPos="5.10" departSpeed="0.00" departDelay="2.40" arrival="223.00" arrivalLane="386_4way_225to4way_245_0" arrivalPos="185.60" arrivalSpeed="15.08" duration="97.00" routeLength="1380.50" waitingTime="0.00" waitingCount="0" stopTime="0.00" timeLoss="7.21" rerouteNo="0" devices="tripinfo_1030" vType="DEFAULT_VEHTYPE" speedFactor="1.11" vaporized=""/>
    <tripinfo id="1130" depart="136.00" departLane="587_4way_348to4way_328_0" departPos="5.10" departSpeed="0.00" departDelay="0.40" arrival="224.00" arrivalLane="431_4way_268to4way_248_0" arrivalPos="185.60" arrivalSpeed="11.04" duration="88.00" routeLength="980.50" waitingTime="0.00" waitingCount="0" stopTime="0.00" timeLoss="7.73" rerouteNo="0" devices="tripinfo_1130" vType="DEFAULT_VEHTYPE" speedFactor="0.88" vaporized=""/>
    <tripinfo id="171" depart="21.00" departLane="35_3way_18to3way_17_0" departPos="5.10" departSpeed="0.00" departDelay="0.48" arrival="228.00" arrivalLane="683_4way_47to4way_67_0" arrivalPos="185.60" arrivalSpeed="13.76" duration="207.00" routeLength="2775.13" waitingTime="0.00" waitingCount="0" stopTime="0.00" timeLoss="12.77" rerouteNo="0" devices="tripinfo_171" vType="DEFAULT_VEHTYPE" speedFactor="1.04" vaporized=""/>
    <tripinfo id="1736" depart="209.00" departLane="233_4way_142to4way_141_0" departPos="5.10" departSpeed="0.00" departDelay="0.68" arrival="228.00" arrivalLane="233_4way_142to4way_141_0" arrivalPos="185.60" arrivalSpeed="11.12" duration="19.00" routeLength="180.50" waitingTime="0.00" waitingCount="0" stopTime="0.00" timeLoss="3.03" rerouteNo="0" devices="tripinfo_1736" vType="DEFAULT_VEHTYPE" speedFactor="0.85" vaporized=""/>