<?xml version="1.0" encoding="UTF-8"?>

<!-- generated on 2023-07-27 09:29:36 by Eclipse SUMO sumo Version 1.12.0
<configuration xmlns:xsi="http://www.w3.org/2001/XMLSchema-instance" xsi:noNamespaceSchemaLocation="http://sumo.dlr.de/xsd/sumoConfiguration.xsd">

    <input>
        <net-file value="../../data_generation/sq.net.xml"/>
        <route-files value="../../data_generation/sq.rou.xml"/>
    </input>

    <output>
        <tripinfo-output value="tripinfo.xml"/>
        <statistic-output value="statistic.xml"/>
    </output>

    <time>
        <begin value="0"/>
        <end value="3600"/>
    </time>

    <processing>
        <time-to-teleport value="-1"/>
    </processing>

    <traci_server>
        <remote-port value="50293"/>
    </traci_server>

    <random_number>
        <seed value="1395"/>
    </random_number>

    <gui_only>
        <gui-settings-file value="../../data_generation/view_HY_0402.xml"/>
    </gui_only>

</configuration>
-->

<tripinfos xmlns:xsi="http://www.w3.org/2001/XMLSchema-instance" xsi:noNamespaceSchemaLocation="http://sumo.dlr.de/xsd/tripinfo_file.xsd">
    <tripinfo id="1" depart="1.00" departLane="36_4way_13to4way_19_0" departPos="5.10" departSpeed="0.00" departDelay="0.58" arrival="17.00" arrivalLane="46_4way_19to4way_25_0" arrivalPos="85.60" arrivalSpeed="14.43" duration="16.00" routeLength="180.50" waitingTime="0.00" waitingCount="0" stopTime="0.00" timeLoss="3.35" rerouteNo="0" devices="tripinfo_1" vType="DEFAULT_VEHTYPE" speedFactor="1.04" vaporized=""/>
    <tripinfo id="0" depart="0.00" departLane="39_4way_20to4way_14_0" departPos="5.10" departSpeed="0.00" departDelay="0.00" arrival="18.00" arrivalLane="35_4way_14to4way_13_0" arrivalPos="85.60" arrivalSpeed="13.68" duration="18.00" routeLength="175.13" waitingTime="0.00" waitingCount="0" stopTime="0.00" timeLoss="4.86" rerouteNo="0" devices="tripinfo_0" vType="DEFAULT_VEHTYPE" speedFactor="1.00" vaporized=""/>
    <tripinfo id="21" depart="9.00" departLane="24_3way_31to3way_32_0" departPos="5.10" departSpeed="0.00" departDelay="0.25" arrival="19.00" arrivalLane="24_3way_31to3way_32_0" arrivalPos="85.60" arrivalSpeed="11.16" duration="10.00" routeLength="80.50" waitingTime="0.00" waitingCount="0" stopTime="0.00" timeLoss="2.46" rerouteNo="0" devices="tripinfo_21" vType="DEFAULT_VEHTYPE" speedFactor="0.82" vaporized=""/>
    <tripinfo id="24" depart="10.00" departLane="10_3way_17to3way_23_0" departPos="5.10" departSpeed="0.00" departDelay="0.00" arrival="19.00" arrivalLane="10_3way_17to3way_23_0" arrivalPos="85.60" arrivalSpeed="12.54" duration="9.00" routeLength="80.50" waitingTime="0.00" waitingCount="0" stopTime="0.00" timeLoss="2.93" rerouteNo="0" devices="tripinfo_24" vType="DEFAULT_VEHTYPE" speedFactor="0.97" vaporized=""/>
    <tripinfo id="15" depart="7.00" departLane="36_4way_19to4way_13_0" departPos="5.10" departSpeed="0.00" departDelay="0.75" arrival="26.00" arrivalLane="9_4way_13to3way_12_0" arrivalPos="85.60" arrivalSpeed="13.60" duration="19.00" routeLength="175.13" waitingTime="0.00" waitingCount="0" stopTime="0.00" timeLoss="5.95" rerouteNo="0" devices="tripinfo_15" vType="DEFAULT_VEHTYPE" speedFactor="1.05" vaporized=""/>
    <tripinfo id="20" depart="9.00" departLane="4_3way_11to3way_17_0" departPos="5.10" departSpeed="0.00" departDelay="0.67" arrival="27.00" arrivalLane="10_3way_17to3way_23_0" arrivalPos="85.60" arrivalSpeed="12.24" duration="18.00" routeLength="180.50" waitingTime="0.00" waitingCount="0" stopTime="0.00" timeLoss="3.44" rerouteNo="0" devices="tripinfo_20" vType="DEFAULT_VEHTYPE" speedFactor="0.89" vaporized=""/>
    <tripinfo id="8" depart="4.00" departLane="50_4way_27to4way_21_0" departPos="5.10" departSpeed="0.00" departDelay="0.67" arrival="29.00" arrivalLane="43_4way_15to4way_9_0" arrivalPos="85.60" arrivalSpeed="12.49" duration="25.00" routeLength="280.50" waitingTime="0.00" waitingCount="0" stopTime="0.00" timeLoss="3.72" rerouteNo="0" devices="tripinfo_8" vType="DEFAULT_VEHTYPE" speedFactor="0.98" vaporized=""/>
    <tripinfo id="9" depart="4.00" departLane="42_4way_15to4way_21_0" departPos="5.10" departSpeed="0.00" departDelay="0.25" arrival="32.00" arrivalLane="54_4way_27to4way_28_0" arrivalPos="85.60" arrivalSpeed="12.11" duration="28.00" routeLength="275.13" waitingTime="0.00" waitingCount="0" stopTime="0.00" timeLoss="5.34" rerouteNo="0" devices="tripinfo_9" vType="DEFAULT_VEHTYPE" speedFactor="0.91" vaporized=""/>
    <tripinfo id="18" depart="8.00" departLane="12_3way_18to3way_24_0" departPos="5.10" departSpeed="0.00" departDelay="0.50" arrival="33.00" arrivalLane="18_3way_24to3way_31_0" arrivalPos="182.40" arrivalSpeed="12.15" duration="25.00" routeLength="277.30" waitingTime="0.00" waitingCount="0" stopTime="0.00" timeLoss="3.72" rerouteNo="0" devices="tripinfo_18" vType="DEFAULT_VEHTYPE" speedFactor="0.96" vaporized=""/>
    <tripinfo id="19" depart="8.00" departLane="15_3way_2to4way_8_0" departPos="5.10" departSpeed="0.00" departDelay="0.08" arrival="35.00" arrivalLane="39_4way_14to4way_20_0" arrivalPos="85.60" arrivalSpeed="11.32" duration="27.00" routeLength="280.50" waitingTime="0.00" waitingCount="0" stopTime="0.00" timeLoss="3.85" rerouteNo="0" devices="tripinfo_19" vType="DEFAULT_VEHTYPE" speedFactor="0.89" vaporized=""/>
    <tripinfo id="27" depart="12.00" departLane="5_3way_4to3way_11_0" departPos="5.10" departSpeed="0.00" departDelay="0.75" arrival="37.00" arrivalLane="4_3way_11to3way_17_0" arrivalPos="85.60" arrivalSpeed="13.35" duration="25.00" routeLength="283.70" waitingTime="0.00" waitingCount="0" stopTime="0.00" timeLoss="4.40" rerouteNo="0" devices="tripinfo_27" vType="DEFAULT_VEHTYPE" speedFactor="1.03" vaporized=""/>
    <tripinfo id="50" depart="21.00" departLane="51_4way_22to4way_28_0" departPos="5.10" departSpeed="0.00" departDelay="0.17" arrival="40.00" arrivalLane="21_4way_28to3way_29_0" arrivalPos="85.60" arrivalSpeed="13.86" duration="19.00" routeLength="175.13" waitingTime="0.00" waitingCount="0" stopTime="0.00" timeLoss="5.21" rerouteNo="0" devices="tripinfo_50" vType="DEFAULT_VEHTYPE" speedFactor="1.01" vaporized=""/>
    <tripinfo id="16" depart="7.00" departLane="46_4way_25to4way_19_0" departPos="5.10" departSpeed="0.00" departDelay="0.33" arrival="42.00" arrivalLane="3_4way_7to3way_1_0" arrivalPos="85.60" arrivalSpeed="12.23" duration="35.00" routeLength="380.50" waitingTime="0.00" waitingCount="0" stopTime="0.00" timeLoss="4.02" rerouteNo="0" devices="tripinfo_16" vType="DEFAULT_VEHTYPE" speedFactor="0.90" vaporized=""/>
    <tripinfo id="76" depart="32.00" departLane="53_4way_27to4way_26_0" departPos="5.10" departSpeed="0.00" departDelay="0.34" arrival="42.00" arrivalLane="53_4way_27to4way_26_0" arrivalPos="85.60" arrivalSpeed="11.24" duration="10.00" routeLength="80.50" waitingTime="0.00" waitingCount="0" stopTime="0.00" timeLoss="3.24" rerouteNo="0" devices="tripinfo_76" vType="DEFAULT_VEHTYPE" speedFactor="0.90" vaporized=""/>
    <tripinfo id="31" depart="13.00" departLane="22_3way_4to3way_3_0" departPos="5.10" departSpeed="0.00" departDelay="0.08" arrival="44.00" arrivalLane="42_4way_15to4way_21_0" arrivalPos="85.60" arrivalSpeed="15.38" duration="31.00" routeLength="375.13" waitingTime="0.00" waitingCount="0" stopTime="0.00" timeLoss="5.79" rerouteNo="0" devices="tripinfo_31" vType="DEFAULT_VEHTYPE" speedFactor="1.11" vaporized=""/>
    <tripinfo id="42" depart="18.00" departLane="39_4way_14to4way_20_0" departPos="5.10" departSpeed="0.00" departDelay="0.50" arrival="44.00" arrivalLane="27_4way_26to3way_32_0" arrivalPos="85.60" arrivalSpeed="13.52" duration="26.00" routeLength="280.50" waitingTime="0.00" waitingCount="0" stopTime="0.00" timeLoss="4.73" rerouteNo="0" devices="tripinfo_42" vType="DEFAULT_VEHTYPE" speedFactor="0.99" vaporized=""/>
    <tripinfo id="45" depart="19.00" departLane="3_3way_1to4way_7_0" departPos="5.10" departSpeed="0.00" departDelay="0.25" arrival="44.00" arrivalLane="36_4way_13to4way_19_0" arrivalPos="85.60" arrivalSpeed="13.12" duration="25.00" routeLength="280.50" waitingTime="0.00" waitingCount="0" stopTime="0.00" timeLoss="3.94" rerouteNo="0" devices="tripinfo_45" vType="DEFAULT_VEHTYPE" speedFactor="1.00" vaporized=""/>
    <tripinfo id="68" depart="29.00" departLane="33_4way_16to4way_10_0" departPos="5.10" departSpeed="0.00" departDelay="0.67" arrival="45.00" arrivalLane="31_4way_10to3way_4_0" arrivalPos="85.60" arrivalSpeed="14.13" duration="16.00" routeLength="180.50" waitingTime="0.00" waitingCount="0" stopTime="0.00" timeLoss="3.55" rerouteNo="0" devices="tripinfo_68" vType="DEFAULT_VEHTYPE" speedFactor="1.09" vaporized=""/>
    <tripinfo id="23" depart="10.00" departLane="31_3way_4to4way_10_0" departPos="5.10" departSpeed="0.00" departDelay="0.42" arrival="46.00" arrivalLane="51_4way_22to4way_28_0" arrivalPos="85.60" arrivalSpeed="11.88" duration="36.00" routeLength="380.50" waitingTime="0.00" waitingCount="0" stopTime="0.00" timeLoss="4.39" rerouteNo="0" devices="tripinfo_23" vType="DEFAULT_VEHTYPE" speedFactor="0.87" vaporized=""/>
    <tripinfo id="88" depart="37.00" departLane="36_4way_19to4way_13_0" departPos="5.10" departSpeed="0.00" departDelay="0.34" arrival="46.00" arrivalLane="36_4way_19to4way_13_0" arrivalPos="85.60" arrivalSpeed="14.33" duration="9.00" routeLength="80.50" waitingTime="0.00" waitingCount="0" stopTime="0.00" timeLoss="3.19" rerouteNo="0" devices="tripinfo_88" vType="DEFAULT_VEHTYPE" speedFactor="1.06" vaporized=""/>
    <tripinfo id="34" depart="15.00" departLane="15_3way_2to4way_8_0" departPos="5.10" departSpeed="0.00" departDelay="0.84" arrival="48.00" arrivalLane="48_4way_20to4way_26_0" arrivalPos="85.60" arrivalSpeed="12.98" duration="33.00" routeLength="380.50" waitingTime="0.00" waitingCount="0" stopTime="0.00" timeLoss="4.08" rerouteNo="0" devices="tripinfo_34" vType="DEFAULT_VEHTYPE" speedFactor="0.96" vaporized=""/>
    <tripinfo id="37" depart="16.00" departLane="12_3way_18to3way_24_0" departPos="5.10" departSpeed="0.00" departDelay="0.59" arrival="48.00" arrivalLane="24_3way_31to3way_32_0" arrivalPos="85.60" arrivalSpeed="12.98" duration="32.00" routeLength="377.30" waitingTime="0.00" waitingCount="0" stopTime="0.00" timeLoss="4.03" rerouteNo="0" devices="tripinfo_37" vType="DEFAULT_VEHTYPE" speedFactor="0.99" vaporized=""/>
    <tripinfo id="52" depart="22.00" departLane="29_3way_33to4way_27_0" departPos="5.10" departSpeed="0.00" departDelay="0.34" arrival="49.00" arrivalLane="47_4way_21to4way_20_0" arrivalPos="85.60" arrivalSpeed="13.67" duration="27.00" routeLength="275.13" waitingTime="0.00" waitingCount="0" stopTime="0.00" timeLoss="6.38" rerouteNo="0" devices="tripinfo_52" vType="DEFAULT_VEHTYPE" speedFactor="1.03" vaporized=""/>
    <tripinfo id="80" depart="34.00" departLane="1_3way_2to3way_1_0" departPos="5.10" departSpeed="0.00" departDelay="0.67" arrival="55.00" arrivalLane="3_3way_1to4way_7_0" arrivalPos="85.60" arrivalSpeed="10.63" duration="21.00" routeLength="175.13" waitingTime="0.00" waitingCount="0" stopTime="0.00" timeLoss="3.87" rerouteNo="0" devices="tripinfo_80" vType="DEFAULT_VEHTYPE" speedFactor="0.78" vaporized=""/>
    <tripinfo id="89" depart="38.00" departLane="29_3way_33to4way_27_0" departPos="5.10" departSpeed="0.00" departDelay="0.92" arrival="58.00" arrivalLane="53_4way_27to4way_26_0" arrivalPos="85.60" arrivalSpeed="11.99" duration="20.00" routeLength="175.13" waitingTime="0.00" waitingCount="0" stopTime="0.00" timeLoss="5.88" rerouteNo="0" devices="tripinfo_89" vType="DEFAULT_VEHTYPE" speedFactor="0.93" vaporized=""/>
    <tripinfo id="93" depart="41.00" departLane="20_3way_34to3way_29_0" departPos="5.10" departSpeed="0.00" departDelay="2.26" arrival="58.00" arrivalLane="20_3way_34to3way_29_0" arrivalPos="182.40" arrivalSpeed="13.08" duration="17.00" routeLength="177.30" waitingTime="0.00" waitingCount="0" stopTime="0.00" timeLoss="3.57" rerouteNo="0" devices="tripinfo_93" vType="DEFAULT_VEHTYPE" speedFactor="1.00" vaporized=""/>
    <tripinfo id="97" depart="41.00" departLane="14_3way_3to3way_2_0" departPos="5.10" departSpeed="0.00" departDelay="0.59" arrival="58.00" arrivalLane="1_3way_2to3way_1_0" arrivalPos="85.60" arrivalSpeed="14.60" duration="17.00" routeLength="180.50" waitingTime="0.00" waitingCount="0" stopTime="0.00" timeLoss="4.06" rerouteNo="0" devices="tripinfo_97" vType="DEFAULT_VEHTYPE" speedFactor="1.06" vaporized=""/>
    <tripinfo id="111" depart="48.00" departLane="3_3way_1to4way_7_0" departPos="5.10" departSpeed="0.00" departDelay="1.76" arrival="58.00" arrivalLane="3_3way_1to4way_7_0" arrivalPos="85.60" arrivalSpeed="10.80" duration="10.00" routeLength="80.50" waitingTime="0.00" waitingCount="0" stopTime="0.00" timeLoss="2.93" rerouteNo="0" devices="tripinfo_111" vType="DEFAULT_VEHTYPE" speedFactor="0.84" vaporized=""/>
    <tripinfo id="39" depart="17.00" departLane="28_3way_34to3way_33_0" departPos="5.10" departSpeed="0.00" departDelay="0.75" arrival="59.00" arrivalLane="45_4way_20to4way_19_0" arrivalPos="85.60" arrivalSpeed="14.03" duration="42.00" routeLength="474.93" waitingTime="0.00" waitingCount="0" stopTime="0.00" timeLoss="7.81" rerouteNo="0" devices="tripinfo_39" vType="DEFAULT_VEHTYPE" speedFactor="1.05" vaporized=""/>
    <tripinfo id="84" depart="35.00" departLane="15_3way_2to4way_8_0" departPos="5.10" departSpeed="0.00" departDelay="0.01" arrival="59.00" arrivalLane="39_4way_14to4way_20_0" arrivalPos="85.60" arrivalSpeed="14.04" duration="24.00" routeLength="280.50" waitingTime="0.00" waitingCount="0" stopTime="0.00" timeLoss="4.24" rerouteNo="0" devices="tripinfo_84" vType="DEFAULT_VEHTYPE" speedFactor="1.06" vaporized=""/>
    <tripinfo id="40" depart="22.00" departLane="22_3way_4to3way_3_0" departPos="5.10" departSpeed="0.00" departDelay="5.34" arrival="61.00" arrivalLane="3_3way_1to4way_7_0" arrivalPos="85.60" arrivalSpeed="14.73" duration="39.00" routeLength="375.13" waitingTime="0.00" waitingCount="0" stopTime="0.00" timeLoss="12.96" rerouteNo="0" devices="tripinfo_40" vType="DEFAULT_VEHTYPE" speedFactor="1.08" vaporized=""/>
    <tripinfo id="123" depart="52.00" departLane="36_4way_19to4way_13_0" departPos="5.10" departSpeed="0.00" departDelay="0.76" arrival="62.00" arrivalLane="36_4way_19to4way_13_0" arrivalPos="85.60" arrivalSpeed="14.36" duration="10.00" routeLength="80.50" waitingTime="0.00" waitingCount="0" stopTime="0.00" timeLoss="3.81" rerouteNo="0" devices="tripinfo_123" vType="DEFAULT_VEHTYPE" speedFactor="1.06" vaporized=""/>
    <tripinfo id="29" depart="13.00" departLane="24_3way_31to3way_32_0" departPos="5.10" departSpeed="0.00" departDelay="0.92" arrival="63.00" arrivalLane="16_3way_29to3way_23_0" arrivalPos="85.60" arrivalSpeed="11.90" duration="50.00" routeLength="577.30" waitingTime="0.00" waitingCount="0" stopTime="0.00" timeLoss="5.65" rerouteNo="0" devices="tripinfo_29" vType="DEFAULT_VEHTYPE" speedFactor="0.95" vaporized=""/>
    <tripinfo id="103" depart="43.00" departLane="18_3way_24to3way_31_0" departPos="5.10" departSpeed="0.00" departDelay="0.09" arrival="65.00" arrivalLane="24_3way_31to3way_32_0" arrivalPos="85.60" arrivalSpeed="14.79" duration="22.00" routeLength="277.30" waitingTime="0.00" waitingCount="0" stopTime="0.00" timeLoss="4.20" rerouteNo="0" devices="tripinfo_103" vType="DEFAULT_VEHTYPE" speedFactor="1.15" vaporized=""/>
    <tripinfo id="22" depart="10.00" departLane="7_3way_12to3way_18_0" departPos="5.10" departSpeed="0.00" departDelay="0.83" arrival="70.00" arrivalLane="13_3way_18to4way_19_0" arrivalPos="85.60" arrivalSpeed="5.67" duration="60.00" routeLength="175.13" waitingTime="37.00" waitingCount="1" stopTime="0.00" timeLoss="46.74" rerouteNo="0" devices="tripinfo_22" vType="DEFAULT_VEHTYPE" speedFactor="1.00" vaporized=""/>
    <tripinfo id="60" depart="29.00" departLane="29_3way_33to4way_27_0" departPos="5.10" departSpeed="0.00" departDelay="4.00" arrival="70.00" arrivalLane="38_4way_15to4way_14_0" arrivalPos="85.60" arrivalSpeed="5.46" duration="41.00" routeLength="375.13" waitingTime="5.00" waitingCount="1" stopTime="0.00" timeLoss="16.32" rerouteNo="0" devices="tripinfo_60" vType="DEFAULT_VEHTYPE" speedFactor="1.12" vaporized=""/>
    <tripinfo id="110" depart="46.00" departLane="16_3way_23to3way_29_0" departPos="5.10" departSpeed="0.00" departDelay="0.17" arrival="70.00" arrivalLane="20_3way_29to3way_34_0" arrivalPos="188.80" arrivalSpeed="13.57" duration="24.00" routeLength="283.70" waitingTime="0.00" waitingCount="0" stopTime="0.00" timeLoss="4.06" rerouteNo="0" devices="tripinfo_110" vType="DEFAULT_VEHTYPE" speedFactor="1.05" vaporized=""/>
    <tripinfo id="122" depart="51.00" departLane="23_3way_3to4way_9_0" departPos="5.10" departSpeed="0.00" departDelay="0.17" arrival="70.00" arrivalLane="34_4way_9to4way_10_0" arrivalPos="85.60" arrivalSpeed="16.46" duration="19.00" routeLength="175.13" waitingTime="0.00" waitingCount="0" stopTime="0.00" timeLoss="7.28" rerouteNo="0" devices="tripinfo_122" vType="DEFAULT_VEHTYPE" speedFactor="1.20" vaporized=""/>
    <tripinfo id="135" depart="57.00" departLane="29_4way_27to3way_33_0" departPos="5.10" departSpeed="0.00" departDelay="0.76" arrival="70.00" arrivalLane="29_4way_27to3way_33_0" arrivalPos="85.60" arrivalSpeed="4.39" duration="13.00" routeLength="80.50" waitingTime="0.00" waitingCount="0" stopTime="0.00" timeLoss="7.68" rerouteNo="0" devices="tripinfo_135" vType="DEFAULT_VEHTYPE" speedFactor="1.09" vaporized=""/>
    <tripinfo id="62" depart="26.00" departLane="28_3way_33to3way_34_0" departPos="5.10" departSpeed="0.00" departDelay="0.17" arrival="71.00" arrivalLane="4_3way_17to3way_11_0" arrivalPos="85.60" arrivalSpeed="13.69" duration="45.00" routeLength="577.30" waitingTime="0.00" waitingCount="0" stopTime="0.00" timeLoss="5.28" rerouteNo="0" devices="tripinfo_62" vType="DEFAULT_VEHTYPE" speedFactor="1.05" vaporized=""/>
    <tripinfo id="35" depart="16.00" departLane="22_3way_4to3way_3_0" departPos="5.10" departSpeed="0.00" departDelay="1.42" arrival="72.00" arrivalLane="29_4way_27to3way_33_0" arrivalPos="85.60" arrivalSpeed="6.75" duration="56.00" routeLength="575.13" waitingTime="0.00" waitingCount="0" stopTime="0.00" timeLoss="11.73" rerouteNo="0" devices="tripinfo_35" vType="DEFAULT_VEHTYPE" speedFactor="0.94" vaporized=""/>
    <tripinfo id="30" depart="13.00" departLane="31_3way_4to4way_10_0" departPos="5.10" departSpeed="0.00" departDelay="0.50" arrival="73.00" arrivalLane="49_4way_22to4way_21_0" arrivalPos="85.60" arrivalSpeed="8.92" duration="60.00" routeLength="380.30" waitingTime="11.00" waitingCount="2" stopTime="0.00" timeLoss="32.83" rerouteNo="0" devices="tripinfo_30" vType="DEFAULT_VEHTYPE" speedFactor="1.05" vaporized=""/>
    <tripinfo id="61" depart="26.00" departLane="12_3way_18to3way_24_0" departPos="5.10" departSpeed="0.00" departDelay="0.59" arrival="73.00" arrivalLane="19_3way_24to4way_25_0" arrivalPos="85.60" arrivalSpeed="8.25" duration="47.00" routeLength="175.13" waitingTime="23.00" waitingCount="1" stopTime="0.00" timeLoss="33.60" rerouteNo="0" devices="tripinfo_61" vType="DEFAULT_VEHTYPE" speedFactor="1.01" vaporized=""/>
    <tripinfo id="77" depart="39.00" departLane="54_4way_27to4way_28_0" departPos="5.10" departSpeed="0.00" departDelay="6.92" arrival="73.00" arrivalLane="54_4way_27to4way_28_0" arrivalPos="85.60" arrivalSpeed="7.91" duration="34.00" routeLength="80.50" waitingTime="18.00" waitingCount="1" stopTime="0.00" timeLoss="27.71" rerouteNo="0" devices="tripinfo_77" vType="DEFAULT_VEHTYPE" speedFactor="0.99" vaporized=""/>
    <tripinfo id="127" depart="55.00" departLane="38_4way_15to4way_14_0" departPos="5.10" departSpeed="0.00" departDelay="2.09" arrival="73.00" arrivalLane="38_4way_15to4way_14_0" arrivalPos="85.60" arrivalSpeed="7.90" duration="18.00" routeLength="80.50" waitingTime="4.00" waitingCount="1" stopTime="0.00" timeLoss="11.80" rerouteNo="0" devices="tripinfo_127" vType="DEFAULT_VEHTYPE" speedFactor="1.00" vaporized=""/>
    <tripinfo id="36" depart="19.00" departLane="22_3way_4to3way_3_0" departPos="5.10" departSpeed="0.00" departDelay="4.00" arrival="74.00" arrivalLane="29_4way_27to3way_33_0" arrivalPos="85.60" arrivalSpeed="9.65" duration="55.00" routeLength="575.13" waitingTime="0.00" waitingCount="0" stopTime="0.00" timeLoss="18.71" rerouteNo="0" devices="tripinfo_36" vType="DEFAULT_VEHTYPE" speedFactor="1.16" vaporized=""/>
    <tripinfo id="157" depart="66.00" departLane="39_4way_20to4way_14_0" departPos="5.10" departSpeed="0.00" departDelay="0.59" arrival="76.00" arrivalLane="39_4way_20to4way_14_0" arrivalPos="85.60" arrivalSpeed="11.89" duration="10.00" routeLength="80.50" waitingTime="0.00" waitingCount="0" stopTime="0.00" timeLoss="3.28" rerouteNo="0" devices="tripinfo_157" vType="DEFAULT_VEHTYPE" speedFactor="0.94" vaporized=""/>
    <tripinfo id="14" depart="6.00" departLane="43_4way_9to4way_15_0" departPos="5.10" departSpeed="0.00" departDelay="0.17" arrival="77.00" arrivalLane="28_3way_33to3way_34_0" arrivalPos="85.60" arrivalSpeed="12.98" duration="71.00" routeLength="475.13" waitingTime="25.00" waitingCount="1" stopTime="0.00" timeLoss="33.87" rerouteNo="0" devices="tripinfo_14" vType="DEFAULT_VEHTYPE" speedFactor="0.95" vaporized=""/>
    <tripinfo id="17" depart="8.00" departLane="39_4way_14to4way_20_0" departPos="5.10" departSpeed="0.00" departDelay="0.92" arrival="77.00" arrivalLane="49_4way_21to4way_22_0" arrivalPos="85.60" arrivalSpeed="13.37" duration="69.00" routeLength="275.13" waitingTime="37.00" waitingCount="1" stopTime="0.00" timeLoss="49.34" rerouteNo="0" devices="tripinfo_17" vType="DEFAULT_VEHTYPE" speedFactor="1.04" vaporized=""/>
    <tripinfo id="94" depart="40.00" departLane="7_3way_18to3way_12_0" departPos="5.10" departSpeed="0.00" departDelay="0.84" arrival="77.00" arrivalLane="1_3way_1to3way_2_0" arrivalPos="85.60" arrivalSpeed="13.84" duration="37.00" routeLength="483.70" waitingTime="0.00" waitingCount="0" stopTime="0.00" timeLoss="4.75" rerouteNo="0" devices="tripinfo_94" vType="DEFAULT_VEHTYPE" speedFactor="1.08" vaporized=""/>
    <tripinfo id="104" depart="46.00" departLane="47_4way_21to4way_20_0" departPos="5.10" departSpeed="0.00" departDelay="2.67" arrival="77.00" arrivalLane="45_4way_20to4way_19_0" arrivalPos="85.60" arrivalSpeed="12.99" duration="31.00" routeLength="180.50" waitingTime="8.00" waitingCount="1" stopTime="0.00" timeLoss="16.81" rerouteNo="0" devices="tripinfo_104" vType="DEFAULT_VEHTYPE" speedFactor="0.95" vaporized=""/>
    <tripinfo id="5" depart="3.00" departLane="37_4way_7to4way_13_0" departPos="5.10" departSpeed="0.00" departDelay="0.92" arrival="78.00" arrivalLane="38_4way_14to4way_15_0" arrivalPos="85.60" arrivalSpeed="12.45" duration="75.00" routeLength="275.13" waitingTime="40.00" waitingCount="1" stopTime="0.00" timeLoss="52.31" rerouteNo="0" devices="tripinfo_5" vType="DEFAULT_VEHTYPE" speedFactor="0.94" vaporized=""/>
    <tripinfo id="95" depart="42.00" departLane="48_4way_20to4way_26_0" departPos="5.10" departSpeed="0.00" departDelay="2.42" arrival="78.00" arrivalLane="26_3way_32to3way_33_0" arrivalPos="85.60" arrivalSpeed="12.02" duration="36.00" routeLength="275.13" waitingTime="4.00" waitingCount="1" stopTime="0.00" timeLoss="12.08" rerouteNo="0" devices="tripinfo_95" vType="DEFAULT_VEHTYPE" speedFactor="0.88" vaporized=""/>
    <tripinfo id="56" depart="24.00" departLane="37_4way_7to4way_13_0" departPos="5.10" departSpeed="0.00" departDelay="0.67" arrival="79.00" arrivalLane="52_4way_25to4way_26_0" arrivalPos="85.60" arrivalSpeed="11.22" duration="55.00" routeLength="375.13" waitingTime="14.00" waitingCount="1" stopTime="0.00" timeLoss="27.46" rerouteNo="0" devices="tripinfo_56" vType="DEFAULT_VEHTYPE" speedFactor="1.02" vaporized=""/>
    <tripinfo id="91" depart="40.00" departLane="17_4way_22to3way_23_0" departPos="5.10" departSpeed="0.00" departDelay="2.09" arrival="79.00" arrivalLane="10_3way_23to3way_17_0" arrivalPos="85.60" arrivalSpeed="13.37" duration="39.00" routeLength="175.13" waitingTime="14.00" waitingCount="1" stopTime="0.00" timeLoss="26.03" rerouteNo="0" devices="tripinfo_91" vType="DEFAULT_VEHTYPE" speedFactor="1.04" vaporized=""/>
    <tripinfo id="168" depart="70.00" departLane="15_3way_2to4way_8_0" departPos="5.10" departSpeed="0.00" departDelay="0.01" arrival="79.00" arrivalLane="15_3way_2to4way_8_0" arrivalPos="85.60" arrivalSpeed="15.00" duration="9.00" routeLength="80.50" waitingTime="0.00" waitingCount="0" stopTime="0.00" timeLoss="3.63" rerouteNo="0" devices="tripinfo_168" vType="DEFAULT_VEHTYPE" speedFactor="1.10" vaporized=""/>
    <tripinfo id="113" depart="50.00" departLane="7_3way_12to3way_18_0" departPos="5.10" departSpeed="0.00" departDelay="2.92" arrival="80.00" arrivalLane="18_3way_24to3way_31_0" arrivalPos="182.40" arrivalSpeed="14.41" duration="30.00" routeLength="377.30" waitingTime="0.00" waitingCount="0" stopTime="0.00" timeLoss="4.52" rerouteNo="0" devices="tripinfo_113" vType="DEFAULT_VEHTYPE" speedFactor="1.10" vaporized=""/>
    <tripinfo id="69" depart="32.00" departLane="51_4way_28to4way_22_0" departPos="5.10" departSpeed="0.00" departDelay="3.25" arrival="81.00" arrivalLane="47_4way_21to4way_20_0" arrivalPos="85.60" arrivalSpeed="10.57" duration="49.00" routeLength="275.13" waitingTime="11.00" waitingCount="1" stopTime="0.00" timeLoss="23.12" rerouteNo="0" devices="tripinfo_69" vType="DEFAULT_VEHTYPE" speedFactor="0.82" vaporized=""/>
    <tripinfo id="107" depart="45.00" departLane="17_4way_22to3way_23_0" departPos="5.10" departSpeed="0.00" departDelay="0.42" arrival="81.00" arrivalLane="10_3way_23to3way_17_0" arrivalPos="85.60" arrivalSpeed="14.90" duration="36.00" routeLength="175.13" waitingTime="13.00" waitingCount="1" stopTime="0.00" timeLoss="23.61" rerouteNo="0" devices="tripinfo_107" vType="DEFAULT_VEHTYPE" speedFactor="1.10" vaporized=""/>
    <tripinfo id="12" depart="5.00" departLane="17_4way_22to3way_23_0" departPos="5.10" departSpeed="0.00" departDelay="0.00" arrival="82.00" arrivalLane="4_3way_17to3way_11_0" arrivalPos="85.60" arrivalSpeed="15.82" duration="77.00" routeLength="275.13" waitingTime="49.00" waitingCount="1" stopTime="0.00" timeLoss="59.21" rerouteNo="0" devices="tripinfo_12" vType="DEFAULT_VEHTYPE" speedFactor="1.16" vaporized=""/>
    <tripinfo id="25" depart="11.00" departLane="30_3way_34to4way_28_0" departPos="5.10" departSpeed="0.00" departDelay="0.58" arrival="84.00" arrivalLane="56_4way_9to4way_8_0" arrivalPos="85.60" arrivalSpeed="11.94" duration="73.00" routeLength="575.13" waitingTime="14.00" waitingCount="1" stopTime="0.00" timeLoss="28.41" rerouteNo="0" devices="tripinfo_25" vType="DEFAULT_VEHTYPE" speedFactor="0.95" vaporized=""/>
    <tripinfo id="46" depart="22.00" departLane="3_3way_1to4way_7_0" departPos="5.10" departSpeed="0.00" departDelay="2.84" arrival="84.00" arrivalLane="47_4way_20to4way_21_0" arrivalPos="85.60" arrivalSpeed="7.81" duration="62.00" routeLength="475.13" waitingTime="12.00" waitingCount="1" stopTime="0.00" timeLoss="27.85" rerouteNo="0" devices="tripinfo_46" vType="DEFAULT_VEHTYPE" speedFactor="1.04" vaporized=""/>
    <tripinfo id="47" depart="20.00" departLane="30_3way_34to4way_28_0" departPos="5.10" departSpeed="0.00" departDelay="0.42" arrival="84.00" arrivalLane="38_4way_15to4way_14_0" arrivalPos="85.60" arrivalSpeed="11.57" duration="64.00" routeLength="475.13" waitingTime="11.00" waitingCount="1" stopTime="0.00" timeLoss="25.07" rerouteNo="0" devices="tripinfo_47" vType="DEFAULT_VEHTYPE" speedFactor="0.90" vaporized=""/>
    <tripinfo id="150" depart="63.00" departLane="6_3way_11to4way_10_0" departPos="5.10" departSpeed="0.00" departDelay="0.51" arrival="84.00" arrivalLane="34_4way_10to4way_9_0" arrivalPos="85.60" arrivalSpeed="10.08" duration="21.00" routeLength="180.50" waitingTime="0.00" waitingCount="0" stopTime="0.00" timeLoss="6.69" rerouteNo="0" devices="tripinfo_150" vType="DEFAULT_VEHTYPE" speedFactor="0.92" vaporized=""/>
    <tripinfo id="159" depart="67.00" departLane="41_4way_15to4way_16_0" departPos="5.10" departSpeed="0.00" departDelay="0.76" arrival="84.00" arrivalLane="11_4way_16to3way_17_0" arrivalPos="85.60" arrivalSpeed="12.54" duration="17.00" routeLength="180.50" waitingTime="0.00" waitingCount="0" stopTime="0.00" timeLoss="3.70" rerouteNo="0" devices="tripinfo_159" vType="DEFAULT_VEHTYPE" speedFactor="0.99" vaporized=""/>
    <tripinfo id="106" depart="48.00" departLane="42_4way_15to4way_21_0" departPos="5.10" departSpeed="0.00" departDelay="3.84" arrival="85.00" arrivalLane="28_3way_33to3way_34_0" arrivalPos="85.60" arrivalSpeed="15.60" duration="37.00" routeLength="375.13" waitingTime="0.00" waitingCount="0" stopTime="0.00" timeLoss="12.57" rerouteNo="0" devices="tripinfo_106" vType="DEFAULT_VEHTYPE" speedFactor="1.16" vaporized=""/>
    <tripinfo id="141" depart="59.00" departLane="17_3way_23to4way_22_0" departPos="5.10" departSpeed="0.00" departDelay="0.26" arrival="85.00" arrivalLane="49_4way_22to4way_21_0" arrivalPos="85.60" arrivalSpeed="12.86" duration="26.00" routeLength="180.50" waitingTime="1.00" waitingCount="1" stopTime="0.00" timeLoss="12.56" rerouteNo="0" devices="tripinfo_141" vType="DEFAULT_VEHTYPE" speedFactor="0.99" vaporized=""/>
    <tripinfo id="179" depart="75.00" departLane="56_4way_8to4way_9_0" departPos="5.10" departSpeed="0.00" departDelay="0.43" arrival="85.00" arrivalLane="56_4way_8to4way_9_0" arrivalPos="85.60" arrivalSpeed="12.88" duration="10.00" routeLength="80.50" waitingTime="0.00" waitingCount="0" stopTime="0.00" timeLoss="3.41" rerouteNo="0" devices="tripinfo_179" vType="DEFAULT_VEHTYPE" speedFactor="0.97" vaporized=""/>
    <tripinfo id="57" depart="27.00" departLane="40_4way_8to4way_14_0" departPos="5.10" departSpeed="0.00" departDelay="3.25" arrival="86.00" arrivalLane="49_4way_21to4way_22_0" arrivalPos="85.60" arrivalSpeed="12.88" duration="59.00" routeLength="375.13" waitingTime="15.00" waitingCount="1" stopTime="0.00" timeLoss="30.02" rerouteNo="0" devices="tripinfo_57" vType="DEFAULT_VEHTYPE" speedFactor="0.97" vaporized=""/>