<?xml version="1.0" encoding="UTF-8"?>

<!-- generated on 2023-07-28 03:54:17 by Eclipse SUMO sumo Version 1.12.0
<configuration xmlns:xsi="http://www.w3.org/2001/XMLSchema-instance" xsi:noNamespaceSchemaLocation="http://sumo.dlr.de/xsd/sumoConfiguration.xsd">

    <input>
        <net-file value="../../data_generation/sq.net.xml"/>
        <route-files value="../../data_generation/sq.rou.xml"/>
    </input>

    <output>
        <tripinfo-output value="tripinfo.xml"/>
        <statistic-output value="statistic.xml"/>
    </output>

    <time>
        <begin value="0"/>
        <end value="3600"/>
    </time>

    <processing>
        <time-to-teleport value="-1"/>
    </processing>

    <traci_server>
        <remote-port value="53723"/>
    </traci_server>

    <random_number>
        <seed value="1395"/>
    </random_number>

    <gui_only>
        <gui-settings-file value="../../data_generation/view_HY_0402.xml"/>
    </gui_only>

</configuration>
-->

<tripinfos xmlns:xsi="http://www.w3.org/2001/XMLSchema-instance" xsi:noNamespaceSchemaLocation="http://sumo.dlr.de/xsd/tripinfo_file.xsd">
    <tripinfo id="15" depart="4.00" departLane="80_4way_9to4way_8_0" departPos="5.10" departSpeed="0.00" departDelay="0.94" arrival="13.00" arrivalLane="80_4way_9to4way_8_0" arrivalPos="85.60" arrivalSpeed="14.22" duration="9.00" routeLength="80.50" waitingTime="0.00" waitingCount="0" stopTime="0.00" timeLoss="3.21" rerouteNo="0" devices="tripinfo_15" vType="DEFAULT_VEHTYPE" speedFactor="1.05" vaporized=""/>
    <tripinfo id="19" depart="4.00" departLane="21_3way_3to4way_10_0" departPos="5.10" departSpeed="0.00" departDelay="0.12" arrival="23.00" arrivalLane="42_4way_10to4way_17_0" arrivalPos="85.60" arrivalSpeed="11.54" duration="19.00" routeLength="180.50" waitingTime="0.00" waitingCount="0" stopTime="0.00" timeLoss="3.50" rerouteNo="0" devices="tripinfo_19" vType="DEFAULT_VEHTYPE" speedFactor="0.89" vaporized=""/>
    <tripinfo id="24" depart="5.00" departLane="16_3way_27to3way_34_0" departPos="5.10" departSpeed="0.00" departDelay="0.10" arrival="23.00" arrivalLane="22_3way_34to3way_41_0" arrivalPos="85.60" arrivalSpeed="12.35" duration="18.00" routeLength="180.50" waitingTime="0.00" waitingCount="0" stopTime="0.00" timeLoss="3.85" rerouteNo="0" devices="tripinfo_24" vType="DEFAULT_VEHTYPE" speedFactor="0.97" vaporized=""/>
    <tripinfo id="50" depart="13.00" departLane="52_4way_9to4way_16_0" departPos="5.10" departSpeed="0.00" departDelay="2.80" arrival="23.00" arrivalLane="52_4way_9to4way_16_0" arrivalPos="85.60" arrivalSpeed="13.18" duration="10.00" routeLength="80.50" waitingTime="0.00" waitingCount="0" stopTime="0.00" timeLoss="3.40" rerouteNo="0" devices="tripinfo_50" vType="DEFAULT_VEHTYPE" speedFactor="1.01" vaporized=""/>
    <tripinfo id="38" depart="8.00" departLane="42_4way_17to4way_10_0" departPos="5.10" departSpeed="0.00" departDelay="0.25" arrival="25.00" arrivalLane="21_4way_10to3way_3_0" arrivalPos="85.60" arrivalSpeed="12.76" duration="17.00" routeLength="180.50" waitingTime="0.00" waitingCount="0" stopTime="0.00" timeLoss="3.30" rerouteNo="0" devices="tripinfo_38" vType="DEFAULT_VEHTYPE" speedFactor="1.00" vaporized=""/>
    <tripinfo id="61" depart="16.00" departLane="33_3way_44to4way_37_0" departPos="5.10" departSpeed="0.00" departDelay="3.56" arrival="26.00" arrivalLane="33_3way_44to4way_37_0" arrivalPos="85.60" arrivalSpeed="13.52" duration="10.00" routeLength="80.50" waitingTime="0.00" waitingCount="0" stopTime="0.00" timeLoss="3.30" rerouteNo="0" devices="tripinfo_61" vType="DEFAULT_VEHTYPE" speedFactor="1.01" vaporized=""/>
    <tripinfo id="64" depart="16.00" departLane="52_4way_16to4way_9_0" departPos="5.10" departSpeed="0.00" departDelay="2.94" arrival="26.00" arrivalLane="52_4way_16to4way_9_0" arrivalPos="85.60" arrivalSpeed="12.45" duration="10.00" routeLength="80.50" waitingTime="0.00" waitingCount="0" stopTime="0.00" timeLoss="3.38" rerouteNo="0" devices="tripinfo_64" vType="DEFAULT_VEHTYPE" speedFactor="0.96" vaporized=""/>
    <tripinfo id="69" depart="15.00" departLane="53_4way_17to4way_18_0" departPos="5.10" departSpeed="0.00" departDelay="0.92" arrival="26.00" arrivalLane="53_4way_17to4way_18_0" arrivalPos="85.60" arrivalSpeed="10.81" duration="11.00" routeLength="80.50" waitingTime="0.00" waitingCount="0" stopTime="0.00" timeLoss="3.02" rerouteNo="0" devices="tripinfo_69" vType="DEFAULT_VEHTYPE" speedFactor="0.82" vaporized=""/>
    <tripinfo id="18" depart="4.00" departLane="8_3way_7to3way_14_0" departPos="5.10" departSpeed="0.00" departDelay="0.33" arrival="29.00" arrivalLane="14_3way_21to3way_28_0" arrivalPos="85.60" arrivalSpeed="12.12" duration="25.00" routeLength="280.50" waitingTime="0.00" waitingCount="0" stopTime="0.00" timeLoss="3.78" rerouteNo="0" devices="tripinfo_18" vType="DEFAULT_VEHTYPE" speedFactor="0.96" vaporized=""/>
    <tripinfo id="95" depart="20.00" departLane="36_3way_46to3way_47_0" departPos="5.10" departSpeed="0.00" departDelay="0.62" arrival="30.00" arrivalLane="36_3way_46to3way_47_0" arrivalPos="85.60" arrivalSpeed="12.19" duration="10.00" routeLength="80.50" waitingTime="0.00" waitingCount="0" stopTime="0.00" timeLoss="2.48" rerouteNo="0" devices="tripinfo_95" vType="DEFAULT_VEHTYPE" speedFactor="0.88" vaporized=""/>
    <tripinfo id="102" depart="21.00" departLane="29_3way_41to4way_40_0" departPos="5.10" departSpeed="0.00" departDelay="0.19" arrival="31.00" arrivalLane="29_3way_41to4way_40_0" arrivalPos="85.60" arrivalSpeed="13.68" duration="10.00" routeLength="80.50" waitingTime="0.00" waitingCount="0" stopTime="0.00" timeLoss="3.83" rerouteNo="0" devices="tripinfo_102" vType="DEFAULT_VEHTYPE" speedFactor="1.05" vaporized=""/>
    <tripinfo id="21" depart="5.00" departLane="18_3way_28to3way_35_0" departPos="5.10" departSpeed="0.00" departDelay="0.72" arrival="33.00" arrivalLane="24_3way_35to3way_43_0" arrivalPos="182.40" arrivalSpeed="10.85" duration="28.00" routeLength="277.30" waitingTime="0.00" waitingCount="0" stopTime="0.00" timeLoss="3.47" rerouteNo="0" devices="tripinfo_21" vType="DEFAULT_VEHTYPE" speedFactor="0.82" vaporized=""/>
    <tripinfo id="30" depart="7.00" departLane="26_3way_5to3way_4_0" departPos="5.10" departSpeed="0.00" departDelay="0.88" arrival="33.00" arrivalLane="45_4way_11to4way_18_0" arrivalPos="85.60" arrivalSpeed="14.26" duration="26.00" routeLength="275.13" waitingTime="0.00" waitingCount="0" stopTime="0.00" timeLoss="5.95" rerouteNo="0" devices="tripinfo_30" vType="DEFAULT_VEHTYPE" speedFactor="1.05" vaporized=""/>
    <tripinfo id="8" depart="2.00" departLane="74_4way_39to4way_32_0" departPos="5.10" departSpeed="0.00" departDelay="0.37" arrival="35.00" arrivalLane="45_4way_18to4way_11_0" arrivalPos="85.60" arrivalSpeed="13.29" duration="33.00" routeLength="380.50" waitingTime="0.00" waitingCount="0" stopTime="0.00" timeLoss="4.19" rerouteNo="0" devices="tripinfo_8" vType="DEFAULT_VEHTYPE" speedFactor="0.98" vaporized=""/>
    <tripinfo id="78" depart="17.00" departLane="65_4way_32to4way_25_0" departPos="5.10" departSpeed="0.00" departDelay="1.09" arrival="35.00" arrivalLane="62_4way_25to4way_24_0" arrivalPos="85.60" arrivalSpeed="13.81" duration="18.00" routeLength="175.13" waitingTime="0.00" waitingCount="0" stopTime="0.00" timeLoss="4.96" rerouteNo="0" devices="tripinfo_78" vType="DEFAULT_VEHTYPE" speedFactor="1.03" vaporized=""/>
    <tripinfo id="70" depart="15.00" departLane="46_4way_19to4way_12_0" departPos="5.10" departSpeed="0.00" departDelay="0.72" arrival="36.00" arrivalLane="39_4way_12to3way_5_0" arrivalPos="85.60" arrivalSpeed="9.74" duration="21.00" routeLength="180.50" waitingTime="0.00" waitingCount="0" stopTime="0.00" timeLoss="3.57" rerouteNo="0" devices="tripinfo_70" vType="DEFAULT_VEHTYPE" speedFactor="0.75" vaporized=""/>
    <tripinfo id="123" depart="26.00" departLane="72_4way_31to4way_38_0" departPos="5.10" departSpeed="0.00" departDelay="0.91" arrival="36.00" arrivalLane="72_4way_31to4way_38_0" arrivalPos="85.60" arrivalSpeed="13.67" duration="10.00" routeLength="80.50" waitingTime="0.00" waitingCount="0" stopTime="0.00" timeLoss="3.79" rerouteNo="0" devices="tripinfo_123" vType="DEFAULT_VEHTYPE" speedFactor="1.06" vaporized=""/>
    <tripinfo id="93" depart="19.00" departLane="66_4way_26to4way_33_0" departPos="5.10" departSpeed="0.00" departDelay="0.03" arrival="38.00" arrivalLane="23_4way_33to3way_34_0" arrivalPos="85.60" arrivalSpeed="13.47" duration="19.00" routeLength="175.13" waitingTime="0.00" waitingCount="0" stopTime="0.00" timeLoss="5.36" rerouteNo="0" devices="tripinfo_93" vType="DEFAULT_VEHTYPE" speedFactor="1.00" vaporized=""/>
    <tripinfo id="99" depart="21.00" departLane="20_3way_4to3way_3_0" departPos="5.10" departSpeed="0.00" departDelay="0.80" arrival="38.00" arrivalLane="10_3way_3to3way_2_0" arrivalPos="85.60" arrivalSpeed="13.50" duration="17.00" routeLength="180.50" waitingTime="0.00" waitingCount="0" stopTime="0.00" timeLoss="3.35" rerouteNo="0" devices="tripinfo_99" vType="DEFAULT_VEHTYPE" speedFactor="0.97" vaporized=""/>
    <tripinfo id="20" depart="5.00" departLane="4_3way_13to3way_20_0" departPos="5.10" departSpeed="0.00" departDelay="0.92" arrival="40.00" arrivalLane="22_3way_34to3way_41_0" arrivalPos="85.60" arrivalSpeed="11.62" duration="35.00" routeLength="380.50" waitingTime="0.00" waitingCount="0" stopTime="0.00" timeLoss="4.19" rerouteNo="0" devices="tripinfo_20" vType="DEFAULT_VEHTYPE" speedFactor="0.89" vaporized=""/>
    <tripinfo id="51" depart="11.00" departLane="66_4way_26to4way_33_0" departPos="5.10" departSpeed="0.00" departDelay="0.60" arrival="42.00" arrivalLane="38_4way_40to3way_47_0" arrivalPos="85.60" arrivalSpeed="9.66" duration="31.00" routeLength="280.50" waitingTime="0.00" waitingCount="0" stopTime="0.00" timeLoss="3.80" rerouteNo="0" devices="tripinfo_51" vType="DEFAULT_VEHTYPE" speedFactor="0.74" vaporized=""/>
    <tripinfo id="109" depart="23.00" departLane="66_4way_26to4way_33_0" departPos="5.10" departSpeed="0.00" departDelay="0.76" arrival="42.00" arrivalLane="23_4way_33to3way_34_0" arrivalPos="85.60" arrivalSpeed="13.75" duration="19.00" routeLength="175.13" waitingTime="0.00" waitingCount="0" stopTime="0.00" timeLoss="5.61" rerouteNo="0" devices="tripinfo_109" vType="DEFAULT_VEHTYPE" speedFactor="1.04" vaporized=""/>
    <tripinfo id="152" depart="32.00" departLane="26_3way_5to3way_4_0" departPos="5.10" departSpeed="0.00" departDelay="0.99" arrival="42.00" arrivalLane="26_3way_5to3way_4_0" arrivalPos="85.60" arrivalSpeed="11.53" duration="10.00" routeLength="80.50" waitingTime="0.00" waitingCount="0" stopTime="0.00" timeLoss="2.92" rerouteNo="0" devices="tripinfo_152" vType="DEFAULT_VEHTYPE" speedFactor="0.89" vaporized=""/>
    <tripinfo id="31" depart="10.00" departLane="26_3way_5to3way_4_0" departPos="5.10" departSpeed="0.00" departDelay="3.68" arrival="43.00" arrivalLane="56_4way_18to4way_25_0" arrivalPos="85.60" arrivalSpeed="14.20" duration="33.00" routeLength="375.13" waitingTime="0.00" waitingCount="0" stopTime="0.00" timeLoss="7.39" rerouteNo="0" devices="tripinfo_31" vType="DEFAULT_VEHTYPE" speedFactor="1.11" vaporized=""/>
    <tripinfo id="159" depart="33.00" departLane="42_4way_17to4way_10_0" departPos="5.10" departSpeed="0.00" departDelay="0.56" arrival="43.00" arrivalLane="42_4way_17to4way_10_0" arrivalPos="85.60" arrivalSpeed="13.49" duration="10.00" routeLength="80.50" waitingTime="0.00" waitingCount="0" stopTime="0.00" timeLoss="3.53" rerouteNo="0" devices="tripinfo_159" vType="DEFAULT_VEHTYPE" speedFactor="0.99" vaporized=""/>
    <tripinfo id="124" depart="26.00" departLane="27_3way_4to4way_11_0" departPos="5.10" departSpeed="0.00" departDelay="0.70" arrival="44.00" arrivalLane="44_4way_11to4way_12_0" arrivalPos="85.60" arrivalSpeed="15.31" duration="18.00" routeLength="175.13" waitingTime="0.00" waitingCount="0" stopTime="0.00" timeLoss="5.68" rerouteNo="0" devices="tripinfo_124" vType="DEFAULT_VEHTYPE" speedFactor="1.11" vaporized=""/>
    <tripinfo id="168" depart="35.00" departLane="27_3way_4to4way_11_0" departPos="5.10" departSpeed="0.00" departDelay="0.73" arrival="44.00" arrivalLane="27_3way_4to4way_11_0" arrivalPos="85.60" arrivalSpeed="14.92" duration="9.00" routeLength="80.50" waitingTime="0.00" waitingCount="0" stopTime="0.00" timeLoss="3.41" rerouteNo="0" devices="tripinfo_168" vType="DEFAULT_VEHTYPE" speedFactor="1.10" vaporized=""/>
    <tripinfo id="37" depart="8.00" departLane="7_3way_14to3way_21_0" departPos="5.10" departSpeed="0.00" departDelay="0.45" arrival="47.00" arrivalLane="24_3way_35to3way_43_0" arrivalPos="182.40" arrivalSpeed="12.92" duration="39.00" routeLength="477.30" waitingTime="0.00" waitingCount="0" stopTime="0.00" timeLoss="3.97" rerouteNo="0" devices="tripinfo_37" vType="DEFAULT_VEHTYPE" speedFactor="0.99" vaporized=""/>
    <tripinfo id="53" depart="11.00" departLane="32_3way_44to3way_45_0" departPos="5.10" departSpeed="0.00" departDelay="0.19" arrival="47.00" arrivalLane="54_4way_24to4way_17_0" arrivalPos="85.60" arrivalSpeed="16.60" duration="36.00" routeLength="475.13" waitingTime="0.00" waitingCount="0" stopTime="0.00" timeLoss="7.82" rerouteNo="0" devices="tripinfo_53" vType="DEFAULT_VEHTYPE" speedFactor="1.27" vaporized=""/>
    <tripinfo id="194" depart="40.00" departLane="18_3way_28to3way_35_0" departPos="5.10" departSpeed="0.00" departDelay="0.42" arrival="49.00" arrivalLane="18_3way_28to3way_35_0" arrivalPos="85.60" arrivalSpeed="15.07" duration="9.00" routeLength="80.50" waitingTime="0.00" waitingCount="0" stopTime="0.00" timeLoss="3.09" rerouteNo="0" devices="tripinfo_194" vType="DEFAULT_VEHTYPE" speedFactor="1.10" vaporized=""/>
    <tripinfo id="23" depart="5.00" departLane="39_3way_5to4way_12_0" departPos="5.10" departSpeed="0.00" departDelay="0.31" arrival="50.00" arrivalLane="75_4way_33to4way_40_0" arrivalPos="85.60" arrivalSpeed="11.70" duration="45.00" routeLength="480.50" waitingTime="0.00" waitingCount="0" stopTime="0.00" timeLoss="4.66" rerouteNo="0" devices="tripinfo_23" vType="DEFAULT_VEHTYPE" speedFactor="0.87" vaporized=""/>
    <tripinfo id="112" depart="23.00" departLane="28_3way_41to3way_47_0" departPos="5.10" departSpeed="0.00" departDelay="0.15" arrival="51.00" arrivalLane="36_3way_47to3way_46_0" arrivalPos="85.60" arrivalSpeed="11.92" duration="28.00" routeLength="283.70" waitingTime="0.00" waitingCount="0" stopTime="0.00" timeLoss="6.26" rerouteNo="0" devices="tripinfo_112" vType="DEFAULT_VEHTYPE" speedFactor="0.95" vaporized=""/>
    <tripinfo id="155" depart="32.00" departLane="63_4way_24to4way_31_0" departPos="5.10" departSpeed="0.00" departDelay="0.38" arrival="51.00" arrivalLane="71_4way_31to4way_32_0" arrivalPos="85.60" arrivalSpeed="12.85" duration="19.00" routeLength="175.13" waitingTime="0.00" waitingCount="0" stopTime="0.00" timeLoss="4.64" rerouteNo="0" devices="tripinfo_155" vType="DEFAULT_VEHTYPE" speedFactor="0.94" vaporized=""/>
    <tripinfo id="134" depart="28.00" departLane="66_4way_26to4way_33_0" departPos="5.10" departSpeed="0.00" departDelay="0.66" arrival="53.00" arrivalLane="38_4way_40to3way_47_0" arrivalPos="85.60" arrivalSpeed="13.57" duration="25.00" routeLength="280.50" waitingTime="0.00" waitingCount="0" stopTime="0.00" timeLoss="4.07" rerouteNo="0" devices="tripinfo_134" vType="DEFAULT_VEHTYPE" speedFactor="1.00" vaporized=""/>
    <tripinfo id="47" depart="10.00" departLane="35_3way_45to4way_38_0" departPos="5.10" departSpeed="0.00" departDelay="0.41" arrival="54.00" arrivalLane="42_4way_17to4way_10_0" arrivalPos="85.60" arrivalSpeed="11.99" duration="44.00" routeLength="480.50" waitingTime="0.00" waitingCount="0" stopTime="0.00" timeLoss="4.56" rerouteNo="0" devices="tripinfo_47" vType="DEFAULT_VEHTYPE" speedFactor="0.90" vaporized=""/>
    <tripinfo id="96" depart="20.00" departLane="2_3way_7to3way_1_0" departPos="5.10" departSpeed="0.00" departDelay="0.42" arrival="54.00" arrivalLane="10_3way_2to3way_3_0" arrivalPos="85.60" arrivalSpeed="13.11" duration="34.00" routeLength="383.70" waitingTime="0.00" waitingCount="0" stopTime="0.00" timeLoss="4.25" rerouteNo="0" devices="tripinfo_96" vType="DEFAULT_VEHTYPE" speedFactor="0.95" vaporized=""/>
    <tripinfo id="162" depart="37.00" departLane="42_4way_17to4way_10_0" departPos="5.10" departSpeed="0.00" departDelay="3.95" arrival="54.00" arrivalLane="21_4way_10to3way_3_0" arrivalPos="85.60" arrivalSpeed="13.27" duration="17.00" routeLength="180.50" waitingTime="0.00" waitingCount="0" stopTime="0.00" timeLoss="3.30" rerouteNo="0" devices="tripinfo_162" vType="DEFAULT_VEHTYPE" speedFactor="0.96" vaporized=""/>
    <tripinfo id="206" depart="44.00" departLane="75_4way_40to4way_33_0" departPos="5.10" departSpeed="0.00" departDelay="1.98" arrival="54.00" arrivalLane="75_4way_40to4way_33_0" arrivalPos="85.60" arrivalSpeed="11.92" duration="10.00" routeLength="80.50" waitingTime="0.00" waitingCount="0" stopTime="0.00" timeLoss="3.17" rerouteNo="0" devices="tripinfo_206" vType="DEFAULT_VEHTYPE" speedFactor="0.92" vaporized=""/>
    <tripinfo id="135" depart="31.00" departLane="45_4way_11to4way_18_0" departPos="5.10" departSpeed="0.00" departDelay="3.46" arrival="56.00" arrivalLane="64_4way_25to4way_26_0" arrivalPos="85.60" arrivalSpeed="14.95" duration="25.00" routeLength="275.13" waitingTime="0.00" waitingCount="0" stopTime="0.00" timeLoss="5.69" rerouteNo="0" devices="tripinfo_135" vType="DEFAULT_VEHTYPE" speedFactor="1.09" vaporized=""/>
    <tripinfo id="105" depart="24.00" departLane="14_3way_21to3way_28_0" departPos="5.10" departSpeed="0.00" departDelay="2.58" arrival="57.00" arrivalLane="24_3way_35to3way_43_0" arrivalPos="182.40" arrivalSpeed="13.06" duration="33.00" routeLength="377.30" waitingTime="0.00" waitingCount="0" stopTime="0.00" timeLoss="4.12" rerouteNo="0" devices="tripinfo_105" vType="DEFAULT_VEHTYPE" speedFactor="0.95" vaporized=""/>
    <tripinfo id="182" depart="38.00" departLane="70_4way_30to4way_37_0" departPos="5.10" departSpeed="0.00" departDelay="0.87" arrival="59.00" arrivalLane="77_4way_37to4way_38_0" arrivalPos="85.60" arrivalSpeed="12.11" duration="21.00" routeLength="175.13" waitingTime="0.00" waitingCount="0" stopTime="0.00" timeLoss="5.73" rerouteNo="0" devices="tripinfo_182" vType="DEFAULT_VEHTYPE" speedFactor="0.90" vaporized=""/>
    <tripinfo id="169" depart="36.00" departLane="33_3way_44to4way_37_0" departPos="5.10" departSpeed="0.00" departDelay="1.52" arrival="61.00" arrivalLane="67_4way_30to4way_29_0" arrivalPos="85.60" arrivalSpeed="14.91" duration="25.00" routeLength="275.13" waitingTime="0.00" waitingCount="0" stopTime="0.00" timeLoss="6.22" rerouteNo="0" devices="tripinfo_169" vType="DEFAULT_VEHTYPE" speedFactor="1.09" vaporized=""/>
    <tripinfo id="91" depart="19.00" departLane="30_3way_43to3way_44_0" departPos="5.10" departSpeed="0.00" departDelay="0.44" arrival="63.00" arrivalLane="63_4way_31to4way_24_0" arrivalPos="85.60" arrivalSpeed="13.47" duration="44.00" routeLength="475.13" waitingTime="0.00" waitingCount="0" stopTime="0.00" timeLoss="9.94" rerouteNo="0" devices="tripinfo_91" vType="DEFAULT_VEHTYPE" speedFactor="1.04" vaporized=""/>
    <tripinfo id="138" depart="29.00" departLane="3_3way_1to4way_8_0" departPos="5.10" departSpeed="0.00" departDelay="0.85" arrival="63.00" arrivalLane="58_4way_22to4way_23_0" arrivalPos="85.60" arrivalSpeed="13.31" duration="34.00" routeLength="375.13" waitingTime="0.00" waitingCount="0" stopTime="0.00" timeLoss="5.82" rerouteNo="0" devices="tripinfo_138" vType="DEFAULT_VEHTYPE" speedFactor="1.00" vaporized=""/>
    <tripinfo id="167" depart="35.00" departLane="10_3way_3to3way_2_0" departPos="5.10" departSpeed="0.00" departDelay="0.93" arrival="65.00" arrivalLane="3_3way_1to4way_8_0" arrivalPos="85.60" arrivalSpeed="11.11" duration="30.00" routeLength="275.13" waitingTime="0.00" waitingCount="0" stopTime="0.00" timeLoss="5.65" rerouteNo="0" devices="tripinfo_167" vType="DEFAULT_VEHTYPE" speedFactor="0.85" vaporized=""/>
    <tripinfo id="80" depart="17.00" departLane="14_3way_28to3way_21_0" departPos="5.10" departSpeed="0.00" departDelay="0.68" arrival="67.00" arrivalLane="2_3way_7to3way_1_0" arrivalPos="188.80" arrivalSpeed="10.36" duration="50.00" routeLength="483.70" waitingTime="0.00" waitingCount="0" stopTime="0.00" timeLoss="5.07" rerouteNo="0" devices="tripinfo_80" vType="DEFAULT_VEHTYPE" speedFactor="0.78" vaporized=""/>
    <tripinfo id="289" depart="59.00" departLane="10_3way_3to3way_2_0" departPos="5.10" departSpeed="0.00" departDelay="0.04" arrival="68.00" arrivalLane="10_3way_3to3way_2_0" arrivalPos="85.60" arrivalSpeed="13.64" duration="9.00" routeLength="80.50" waitingTime="0.00" waitingCount="0" stopTime="0.00" timeLoss="3.07" rerouteNo="0" devices="tripinfo_289" vType="DEFAULT_VEHTYPE" speedFactor="1.03" vaporized=""/>
    <tripinfo id="44" depart="9.00" departLane="22_3way_34to3way_41_0" departPos="5.10" departSpeed="0.00" departDelay="0.02" arrival="69.00" arrivalLane="32_3way_45to3way_44_0" arrivalPos="85.60" arrivalSpeed="10.06" duration="60.00" routeLength="583.70" waitingTime="0.00" waitingCount="0" stopTime="0.00" timeLoss="6.24" rerouteNo="0" devices="tripinfo_44" vType="DEFAULT_VEHTYPE" speedFactor="0.78" vaporized=""/>
    <tripinfo id="76" depart="17.00" departLane="20_3way_4to3way_3_0" departPos="5.10" departSpeed="0.00" departDelay="1.50" arrival="69.00" arrivalLane="8_3way_7to3way_14_0" arrivalPos="85.60" arrivalSpeed="11.43" duration="52.00" routeLength="577.30" waitingTime="0.00" waitingCount="0" stopTime="0.00" timeLoss="5.37" rerouteNo="0" devices="tripinfo_76" vType="DEFAULT_VEHTYPE" speedFactor="0.90" vaporized=""/>
    <tripinfo id="27" depart="8.00" departLane="39_3way_5to4way_12_0" departPos="5.10" departSpeed="0.00" departDelay="2.49" arrival="70.00" arrivalLane="17_4way_26to3way_27_0" arrivalPos="85.60" arrivalSpeed="5.18" duration="62.00" routeLength="375.13" waitingTime="22.00" waitingCount="1" stopTime="0.00" timeLoss="35.06" rerouteNo="0" devices="tripinfo_27" vType="DEFAULT_VEHTYPE" speedFactor="1.03" vaporized=""/>
    <tripinfo id="45" depart="10.00" departLane="3_3way_1to4way_8_0" departPos="5.10" departSpeed="0.00" departDelay="0.82" arrival="70.00" arrivalLane="47_4way_15to4way_16_0" arrivalPos="85.60" arrivalSpeed="5.36" duration="60.00" routeLength="275.13" waitingTime="27.00" waitingCount="1" stopTime="0.00" timeLoss="39.17" rerouteNo="0" devices="tripinfo_45" vType="DEFAULT_VEHTYPE" speedFactor="1.00" vaporized=""/>
    <tripinfo id="79" depart="19.00" departLane="73_4way_32to4way_33_0" departPos="5.10" departSpeed="0.00" departDelay="2.88" arrival="70.00" arrivalLane="73_4way_32to4way_33_0" arrivalPos="85.60" arrivalSpeed="5.32" duration="51.00" routeLength="80.50" waitingTime="36.00" waitingCount="1" stopTime="0.00" timeLoss="44.45" rerouteNo="0" devices="tripinfo_79" vType="DEFAULT_VEHTYPE" speedFactor="0.90" vaporized=""/>
    <tripinfo id="86" depart="18.00" departLane="11_3way_2to4way_9_0" departPos="5.10" departSpeed="0.00" departDelay="0.46" arrival="70.00" arrivalLane="50_4way_16to4way_17_0" arrivalPos="85.60" arrivalSpeed="5.45" duration="52.00" routeLength="275.13" waitingTime="23.00" waitingCount="1" stopTime="0.00" timeLoss="32.79" rerouteNo="0" devices="tripinfo_86" vType="DEFAULT_VEHTYPE" speedFactor="1.06" vaporized=""/>
    <tripinfo id="172" depart="36.00" departLane="48_4way_22to4way_15_0" departPos="5.10" departSpeed="0.00" departDelay="0.91" arrival="70.00" arrivalLane="40_4way_8to3way_7_0" arrivalPos="85.60" arrivalSpeed="5.37" duration="34.00" routeLength="275.13" waitingTime="3.00" waitingCount="1" stopTime="0.00" timeLoss="12.06" rerouteNo="0" devices="tripinfo_172" vType="DEFAULT_VEHTYPE" speedFactor="0.92" vaporized=""/>
    <tripinfo id="192" depart="40.00" departLane="74_4way_32to4way_39_0" departPos="5.10" departSpeed="0.00" departDelay="0.83" arrival="70.00" arrivalLane="37_4way_39to3way_46_0" arrivalPos="85.60" arrivalSpeed="4.87" duration="30.00" routeLength="180.50" waitingTime="10.00" waitingCount="1" stopTime="0.00" timeLoss="18.34" rerouteNo="0" devices="tripinfo_192" vType="DEFAULT_VEHTYPE" speedFactor="1.12" vaporized=""/>
    <tripinfo id="203" depart="44.00" departLane="36_3way_46to3way_47_0" departPos="5.10" departSpeed="0.00" departDelay="2.59" arrival="70.00" arrivalLane="28_3way_47to3way_41_0" arrivalPos="182.40" arrivalSpeed="12.74" duration="26.00" routeLength="277.30" waitingTime="0.00" waitingCount="0" stopTime="0.00" timeLoss="4.21" rerouteNo="0" devices="tripinfo_203" vType="DEFAULT_VEHTYPE" speedFactor="0.95" vaporized=""/>
    <tripinfo id="269" depart="55.00" departLane="53_4way_18to4way_17_0" departPos="5.10" departSpeed="0.00" departDelay="0.12" arrival="70.00" arrivalLane="53_4way_18to4way_17_0" arrivalPos="85.60" arrivalSpeed="5.80" duration="15.00" routeLength="80.50" waitingTime="1.00" waitingCount="1" stopTime="0.00" timeLoss="9.63" rerouteNo="0" devices="tripinfo_269" vType="DEFAULT_VEHTYPE" speedFactor="1.11" vaporized=""/>
    <tripinfo id="297" depart="61.00" departLane="21_3way_3to4way_10_0" departPos="5.10" departSpeed="0.00" departDelay="0.41" arrival="70.00" arrivalLane="21_3way_3to4way_10_0" arrivalPos="85.60" arrivalSpeed="16.90" duration="9.00" routeLength="80.50" waitingTime="0.00" waitingCount="0" stopTime="0.00" timeLoss="3.90" rerouteNo="0" devices="tripinfo_297" vType="DEFAULT_VEHTYPE" speedFactor="1.22" vaporized=""/>
    <tripinfo id="185" depart="38.00" departLane="52_4way_16to4way_9_0" departPos="5.10" departSpeed="0.00" departDelay="0.26" arrival="71.00" arrivalLane="80_4way_9to4way_8_0" arrivalPos="85.60" arrivalSpeed="6.43" duration="33.00" routeLength="175.13" waitingTime="10.00" waitingCount="1" stopTime="0.00" timeLoss="21.49" rerouteNo="0" devices="tripinfo_185" vType="DEFAULT_VEHTYPE" speedFactor="1.18" vaporized=""/>
    <tripinfo id="197" depart="43.00" departLane="57_4way_26to4way_19_0" departPos="5.10" departSpeed="0.00" departDelay="2.81" arrival="72.00" arrivalLane="39_4way_12to3way_5_0" arrivalPos="85.60" arrivalSpeed="6.59" duration="29.00" routeLength="280.50" waitingTime="0.00" waitingCount="0" stopTime="0.00" timeLoss="8.58" rerouteNo="0" devices="tripinfo_197" vType="DEFAULT_VEHTYPE" speedFactor="1.01" vaporized=""/>
    <tripinfo id="9" depart="2.00" departLane="45_4way_11to4way_18_0" departPos="5.10" departSpeed="0.00" departDelay="0.16" arrival="73.00" arrivalLane="79_4way_39to4way_40_0" arrivalPos="85.60" arrivalSpeed="8.13" duration="71.00" routeLength="475.13" waitingTime="18.00" waitingCount="1" stopTime="0.00" timeLoss="32.35" rerouteNo="0" devices="tripinfo_9" vType="DEFAULT_VEHTYPE" speedFactor="0.91" vaporized=""/>
    <tripinfo id="13" depart="3.00" departLane="7_3way_14to3way_21_0" departPos="5.10" departSpeed="0.00" departDelay="0.35" arrival="73.00" arrivalLane="19_3way_28to4way_29_0" arrivalPos="85.60" arrivalSpeed="8.55" duration="70.00" routeLength="275.13" waitingTime="36.00" waitingCount="1" stopTime="0.00" timeLoss="48.75" rerouteNo="0" devices="tripinfo_13" vType="DEFAULT_VEHTYPE" speedFactor="0.98" vaporized=""/>
    <tripinfo id="56" depart="15.00" departLane="54_4way_17to4way_24_0" departPos="5.10" departSpeed="0.00" departDelay="3.58" arrival="73.00" arrivalLane="78_4way_38to4way_39_0" arrivalPos="85.60" arrivalSpeed="6.23" duration="58.00" routeLength="375.13" waitingTime="17.00" waitingCount="1" stopTime="0.00" timeLoss="30.22" rerouteNo="0" devices="tripinfo_56" vType="DEFAULT_VEHTYPE" speedFactor="1.02" vaporized=""/>
    <tripinfo id="57" depart="12.00" departLane="58_4way_22to4way_23_0" departPos="5.10" departSpeed="0.00" departDelay="0.37" arrival="73.00" arrivalLane="60_4way_23to4way_24_0" arrivalPos="85.60" arrivalSpeed="8.40" duration="61.00" routeLength="180.50" waitingTime="37.00" waitingCount="1" stopTime="0.00" timeLoss="47.05" rerouteNo="0" devices="tripinfo_57" vType="DEFAULT_VEHTYPE" speedFactor="0.97" vaporized=""/>
    <tripinfo id="129" depart="27.00" departLane="41_4way_11to4way_10_0" departPos="5.10" departSpeed="0.00" departDelay="0.68" arrival="73.00" arrivalLane="41_4way_11to4way_10_0" arrivalPos="85.60" arrivalSpeed="7.54" duration="46.00" routeLength="80.50" waitingTime="30.00" waitingCount="1" stopTime="0.00" timeLoss="40.66" rerouteNo="0" devices="tripinfo_129" vType="DEFAULT_VEHTYPE" speedFactor="1.14" vaporized=""/>
    <tripinfo id="191" depart="39.00" departLane="2_3way_7to3way_1_0" departPos="5.10" departSpeed="0.00" departDelay="0.04" arrival="73.00" arrivalLane="10_3way_2to3way_3_0" arrivalPos="85.60" arrivalSpeed="12.35" duration="34.00" routeLength="383.70" waitingTime="0.00" waitingCount="0" stopTime="0.00" timeLoss="4.45" rerouteNo="0" devices="tripinfo_191" vType="DEFAULT_VEHTYPE" speedFactor="0.94" vaporized=""/>
    <tripinfo id="277" depart="57.00" departLane="79_4way_39to4way_40_0" departPos="5.10" departSpeed="0.00" departDelay="0.49" arrival="75.00" arrivalLane="79_4way_39to4way_40_0" arrivalPos="85.60" arrivalSpeed="9.84" duration="18.00" routeLength="80.50" waitingTime="1.00" waitingCount="1" stopTime="0.00" timeLoss="10.96" rerouteNo="0" devices="tripinfo_277" vType="DEFAULT_VEHTYPE" speedFactor="0.88" vaporized=""/>
    <tripinfo id="12" depart="3.00" departLane="17_4way_26to3way_27_0" departPos="5.10" departSpeed="0.00" departDelay="0.55" arrival="76.00" arrivalLane="12_3way_27to3way_20_0" arrivalPos="85.60" arrivalSpeed="15.05" duration="73.00" routeLength="175.13" waitingTime="51.00" waitingCount="1" stopTime="0.00" timeLoss="61.07" rerouteNo="0" devices="tripinfo_12" vType="DEFAULT_VEHTYPE" speedFactor="1.16" vaporized=""/>
    <tripinfo id="100" depart="23.00" departLane="80_4way_8to4way_9_0" departPos="5.10" departSpeed="0.00" departDelay="2.60" arrival="76.00" arrivalLane="43_4way_9to4way_10_0" arrivalPos="85.60" arrivalSpeed="16.26" duration="53.00" routeLength="180.50" waitingTime="31.00" waitingCount="1" stopTime="0.00" timeLoss="41.28" rerouteNo="0" devices="tripinfo_100" vType="DEFAULT_VEHTYPE" speedFactor="1.20" vaporized=""/>