<?xml version="1.0" encoding="UTF-8"?>

<!-- generated on 2023-11-26 06:25:57 by Eclipse SUMO sumo Version 1.12.0
<configuration xmlns:xsi="http://www.w3.org/2001/XMLSchema-instance" xsi:noNamespaceSchemaLocation="http://sumo.dlr.de/xsd/sumoConfiguration.xsd">

    <input>
        <net-file value="../../data_generation/sapporo_HY.net.xml"/>
        <route-files value="../../data_generation/sapporo_HY.rou.xml"/>
    </input>

    <output>
        <tripinfo-output value="tripinfo.xml"/>
        <statistic-output value="statistic.xml"/>
    </output>

    <time>
        <begin value="0"/>
        <end value="3600"/>
    </time>

    <processing>
        <time-to-teleport value="-1"/>
    </processing>

    <traci_server>
        <remote-port value="35959"/>
    </traci_server>

    <random_number>
        <seed value="5"/>
    </random_number>

    <gui_only>
        <gui-settings-file value="../../data_generation/view_HY_0402.xml"/>
    </gui_only>

</configuration>
-->

<tripinfos xmlns:xsi="http://www.w3.org/2001/XMLSchema-instance" xsi:noNamespaceSchemaLocation="http://sumo.dlr.de/xsd/tripinfo_file.xsd">
    <tripinfo id="7" depart="2.00" departLane="12_3way_B10to3way_A09_0" departPos="5.10" departSpeed="0.00" departDelay="0.39" arrival="20.00" arrivalLane="12_3way_B10to3way_A09_0" arrivalPos="182.40" arrivalSpeed="12.72" duration="18.00" routeLength="177.30" waitingTime="0.00" waitingCount="0" stopTime="0.00" timeLoss="3.43" rerouteNo="0" devices="tripinfo_7" vType="DEFAULT_VEHTYPE" speedFactor="0.94" vaporized=""/>
    <tripinfo id="51" depart="12.00" departLane="83_4way_D06to4way_D07_0" departPos="5.10" departSpeed="0.00" departDelay="0.27" arrival="21.00" arrivalLane="83_4way_D06to4way_D07_0" arrivalPos="85.60" arrivalSpeed="13.15" duration="9.00" routeLength="80.50" waitingTime="0.00" waitingCount="0" stopTime="0.00" timeLoss="2.91" rerouteNo="0" devices="tripinfo_51" vType="DEFAULT_VEHTYPE" speedFactor="0.96" vaporized=""/>
    <tripinfo id="16" depart="4.00" departLane="32_3way_D05to4way_D04_0" departPos="5.10" departSpeed="0.00" departDelay="0.32" arrival="23.00" arrivalLane="23_4way_D04to3way_C04_0" arrivalPos="85.60" arrivalSpeed="13.84" duration="19.00" routeLength="180.30" waitingTime="0.00" waitingCount="0" stopTime="0.00" timeLoss="5.51" rerouteNo="0" devices="tripinfo_16" vType="DEFAULT_VEHTYPE" speedFactor="1.07" vaporized=""/>
    <tripinfo id="18" depart="5.00" departLane="96_4way_E05to4way_F05_0" departPos="5.10" departSpeed="0.00" departDelay="0.86" arrival="23.00" arrivalLane="113_4way_F05to4way_G05_0" arrivalPos="85.60" arrivalSpeed="11.93" duration="18.00" routeLength="180.50" waitingTime="0.00" waitingCount="0" stopTime="0.00" timeLoss="3.70" rerouteNo="0" devices="tripinfo_18" vType="DEFAULT_VEHTYPE" speedFactor="0.95" vaporized=""/>
    <tripinfo id="19" depart="5.00" departLane="20_3way_C03to3way_C04_0" departPos="5.10" departSpeed="0.00" departDelay="0.63" arrival="25.00" arrivalLane="22_3way_C04to4way_B04_0" arrivalPos="85.60" arrivalSpeed="12.60" duration="20.00" routeLength="175.13" waitingTime="0.00" waitingCount="0" stopTime="0.00" timeLoss="5.97" rerouteNo="0" devices="tripinfo_19" vType="DEFAULT_VEHTYPE" speedFactor="0.95" vaporized=""/>
    <tripinfo id="65" depart="15.00" departLane="83_4way_D07to4way_D06_0" departPos="5.10" departSpeed="0.00" departDelay="0.05" arrival="25.00" arrivalLane="83_4way_D07to4way_D06_0" arrivalPos="85.60" arrivalSpeed="11.82" duration="10.00" routeLength="80.50" waitingTime="0.00" waitingCount="0" stopTime="0.00" timeLoss="3.22" rerouteNo="0" devices="tripinfo_65" vType="DEFAULT_VEHTYPE" speedFactor="0.92" vaporized=""/>
    <tripinfo id="73" depart="17.00" departLane="47_4way_F09to3way_F10_0" departPos="5.10" departSpeed="0.00" departDelay="0.21" arrival="27.00" arrivalLane="47_4way_F09to3way_F10_0" arrivalPos="85.60" arrivalSpeed="12.75" duration="10.00" routeLength="80.50" waitingTime="0.00" waitingCount="0" stopTime="0.00" timeLoss="3.12" rerouteNo="0" devices="tripinfo_73" vType="DEFAULT_VEHTYPE" speedFactor="0.95" vaporized=""/>
    <tripinfo id="77" depart="18.00" departLane="11_3way_A08to4way_B08_0" departPos="5.10" departSpeed="0.00" departDelay="0.29" arrival="27.00" arrivalLane="11_3way_A08to4way_B08_0" arrivalPos="85.60" arrivalSpeed="11.92" duration="9.00" routeLength="80.50" waitingTime="0.00" waitingCount="0" stopTime="0.00" timeLoss="2.68" rerouteNo="0" devices="tripinfo_77" vType="DEFAULT_VEHTYPE" speedFactor="0.93" vaporized=""/>
    <tripinfo id="80" depart="19.00" departLane="119_4way_F08to4way_G08_0" departPos="5.10" departSpeed="0.00" departDelay="0.60" arrival="29.00" arrivalLane="119_4way_F08to4way_G08_0" arrivalPos="85.60" arrivalSpeed="12.33" duration="10.00" routeLength="80.50" waitingTime="0.00" waitingCount="0" stopTime="0.00" timeLoss="3.57" rerouteNo="0" devices="tripinfo_80" vType="DEFAULT_VEHTYPE" speedFactor="0.96" vaporized=""/>
    <tripinfo id="81" depart="19.00" departLane="3_4way_B04to3way_A04_0" departPos="5.10" departSpeed="0.00" departDelay="0.37" arrival="29.00" arrivalLane="3_4way_B04to3way_A04_0" arrivalPos="85.60" arrivalSpeed="12.81" duration="10.00" routeLength="80.50" waitingTime="0.00" waitingCount="0" stopTime="0.00" timeLoss="3.35" rerouteNo="0" devices="tripinfo_81" vType="DEFAULT_VEHTYPE" speedFactor="0.98" vaporized=""/>
    <tripinfo id="76" depart="18.00" departLane="34_3way_D05to4way_E05_0" departPos="5.10" departSpeed="0.00" departDelay="0.52" arrival="33.00" arrivalLane="96_4way_E05to4way_F05_0" arrivalPos="85.60" arrivalSpeed="16.25" duration="15.00" routeLength="180.50" waitingTime="0.00" waitingCount="0" stopTime="0.00" timeLoss="3.76" rerouteNo="0" devices="tripinfo_76" vType="DEFAULT_VEHTYPE" speedFactor="1.19" vaporized=""/>
    <tripinfo id="67" depart="16.00" departLane="21_3way_C03to4way_D03_0" departPos="5.10" departSpeed="0.00" departDelay="0.59" arrival="42.00" arrivalLane="40_4way_E03to3way_E02_0" arrivalPos="85.60" arrivalSpeed="13.40" duration="26.00" routeLength="280.30" waitingTime="0.00" waitingCount="0" stopTime="0.00" timeLoss="5.66" rerouteNo="0" devices="tripinfo_67" vType="DEFAULT_VEHTYPE" speedFactor="1.05" vaporized=""/>
    <tripinfo id="58" depart="16.00" departLane="77_4way_C09to4way_C08_0" departPos="5.10" departSpeed="0.00" departDelay="2.66" arrival="46.00" arrivalLane="88_4way_D08to4way_E08_0" arrivalPos="85.60" arrivalSpeed="6.58" duration="30.00" routeLength="275.13" waitingTime="0.00" waitingCount="0" stopTime="0.00" timeLoss="10.02" rerouteNo="0" devices="tripinfo_58" vType="DEFAULT_VEHTYPE" speedFactor="1.02" vaporized=""/>
    <tripinfo id="85" depart="20.00" departLane="61_3way_H05to4way_G05_0" departPos="5.10" departSpeed="0.00" departDelay="0.45" arrival="46.00" arrivalLane="110_4way_F05to4way_F04_0" arrivalPos="85.60" arrivalSpeed="14.27" duration="26.00" routeLength="275.13" waitingTime="0.00" waitingCount="0" stopTime="0.00" timeLoss="6.20" rerouteNo="0" devices="tripinfo_85" vType="DEFAULT_VEHTYPE" speedFactor="1.03" vaporized=""/>
    <tripinfo id="43" depart="10.00" departLane="94_4way_E04to4way_F04_0" departPos="5.10" departSpeed="0.00" departDelay="0.11" arrival="48.00" arrivalLane="45_4way_F01to3way_F00_0" arrivalPos="85.60" arrivalSpeed="15.11" duration="38.00" routeLength="480.30" waitingTime="0.00" waitingCount="0" stopTime="0.00" timeLoss="6.82" rerouteNo="0" devices="tripinfo_43" vType="DEFAULT_VEHTYPE" speedFactor="1.15" vaporized=""/>
    <tripinfo id="8" depart="2.00" departLane="98_4way_F06to4way_E06_0" departPos="5.10" departSpeed="0.00" departDelay="0.16" arrival="49.00" arrivalLane="4_3way_A06to3way_A05_0" arrivalPos="85.60" arrivalSpeed="14.47" duration="47.00" routeLength="575.13" waitingTime="0.00" waitingCount="0" stopTime="0.00" timeLoss="7.06" rerouteNo="0" devices="tripinfo_8" vType="DEFAULT_VEHTYPE" speedFactor="1.06" vaporized=""/>
    <tripinfo id="87" depart="21.00" departLane="7_3way_A06to4way_B06_0" departPos="5.10" departSpeed="0.00" departDelay="0.99" arrival="49.00" arrivalLane="84_4way_D06to4way_E06_0" arrivalPos="85.60" arrivalSpeed="15.79" duration="28.00" routeLength="380.50" waitingTime="0.00" waitingCount="0" stopTime="0.00" timeLoss="3.98" rerouteNo="0" devices="tripinfo_87" vType="DEFAULT_VEHTYPE" speedFactor="1.14" vaporized=""/>
    <tripinfo id="165" depart="38.00" departLane="106_4way_F02to4way_F03_0" departPos="5.10" departSpeed="0.00" departDelay="0.05" arrival="49.00" arrivalLane="106_4way_F02to4way_F03_0" arrivalPos="85.60" arrivalSpeed="11.77" duration="11.00" routeLength="80.50" waitingTime="0.00" waitingCount="0" stopTime="0.00" timeLoss="3.41" rerouteNo="0" devices="tripinfo_165" vType="DEFAULT_VEHTYPE" speedFactor="0.87" vaporized=""/>
    <tripinfo id="174" depart="41.00" departLane="74_4way_C09to4way_B09_0" departPos="5.10" departSpeed="0.00" departDelay="0.98" arrival="51.00" arrivalLane="74_4way_C09to4way_B09_0" arrivalPos="85.60" arrivalSpeed="12.30" duration="10.00" routeLength="80.50" waitingTime="0.00" waitingCount="0" stopTime="0.00" timeLoss="3.26" rerouteNo="0" devices="tripinfo_174" vType="DEFAULT_VEHTYPE" speedFactor="0.95" vaporized=""/>
    <tripinfo id="184" depart="43.00" departLane="90_4way_E01to4way_F01_0" departPos="5.10" departSpeed="0.00" departDelay="0.68" arrival="52.00" arrivalLane="90_4way_E01to4way_F01_0" arrivalPos="85.60" arrivalSpeed="12.75" duration="9.00" routeLength="80.50" waitingTime="0.00" waitingCount="0" stopTime="0.00" timeLoss="2.87" rerouteNo="0" devices="tripinfo_184" vType="DEFAULT_VEHTYPE" speedFactor="0.95" vaporized=""/>
    <tripinfo id="154" depart="36.00" departLane="12_3way_B10to3way_A09_0" departPos="5.10" departSpeed="0.00" departDelay="0.58" arrival="53.00" arrivalLane="12_3way_B10to3way_A09_0" arrivalPos="182.40" arrivalSpeed="12.64" duration="17.00" routeLength="177.30" waitingTime="0.00" waitingCount="0" stopTime="0.00" timeLoss="3.59" rerouteNo="0" devices="tripinfo_154" vType="DEFAULT_VEHTYPE" speedFactor="0.96" vaporized=""/>
    <tripinfo id="4" depart="1.00" departLane="24_4way_B06to3way_C06_0" departPos="5.10" departSpeed="0.00" departDelay="0.08" arrival="55.00" arrivalLane="126_4way_G06to4way_G07_0" arrivalPos="85.60" arrivalSpeed="15.21" duration="54.00" routeLength="575.13" waitingTime="0.00" waitingCount="0" stopTime="0.00" timeLoss="15.85" rerouteNo="0" devices="tripinfo_4" vType="DEFAULT_VEHTYPE" speedFactor="1.12" vaporized=""/>
    <tripinfo id="110" depart="26.00" departLane="63_4way_G06to3way_H06_0" departPos="5.10" departSpeed="0.00" departDelay="0.70" arrival="55.00" arrivalLane="64_3way_H07to3way_H08_0" arrivalPos="85.60" arrivalSpeed="11.72" duration="29.00" routeLength="275.13" waitingTime="0.00" waitingCount="0" stopTime="0.00" timeLoss="6.27" rerouteNo="0" devices="tripinfo_110" vType="DEFAULT_VEHTYPE" speedFactor="0.91" vaporized=""/>
    <tripinfo id="95" depart="22.00" departLane="78_4way_C08to4way_D08_0" departPos="5.10" departSpeed="0.00" departDelay="0.15" arrival="56.00" arrivalLane="101_4way_E08to4way_E09_0" arrivalPos="85.60" arrivalSpeed="9.92" duration="34.00" routeLength="275.13" waitingTime="0.00" waitingCount="0" stopTime="0.00" timeLoss="5.15" rerouteNo="0" devices="tripinfo_95" vType="DEFAULT_VEHTYPE" speedFactor="0.73" vaporized=""/>
    <tripinfo id="103" depart="25.00" departLane="62_3way_H06to3way_H07_0" departPos="5.10" departSpeed="0.00" departDelay="1.31" arrival="58.00" arrivalLane="68_3way_H09to4way_G09_0" arrivalPos="85.60" arrivalSpeed="14.33" duration="33.00" routeLength="375.13" waitingTime="0.00" waitingCount="0" stopTime="0.00" timeLoss="5.82" rerouteNo="0" devices="tripinfo_103" vType="DEFAULT_VEHTYPE" speedFactor="1.05" vaporized=""/>
    <tripinfo id="207" depart="48.00" departLane="128_4way_G09to4way_G08_0" departPos="5.10" departSpeed="0.00" departDelay="0.39" arrival="58.00" arrivalLane="128_4way_G09to4way_G08_0" arrivalPos="85.60" arrivalSpeed="14.42" duration="10.00" routeLength="80.50" waitingTime="0.00" waitingCount="0" stopTime="0.00" timeLoss="3.61" rerouteNo="0" devices="tripinfo_207" vType="DEFAULT_VEHTYPE" speedFactor="1.05" vaporized=""/>
    <tripinfo id="132" depart="31.00" departLane="71_4way_C07to4way_B07_0" departPos="5.10" departSpeed="0.00" departDelay="0.64" arrival="59.00" arrivalLane="8_3way_A07to3way_A08_0" arrivalPos="85.60" arrivalSpeed="12.14" duration="28.00" routeLength="280.29" waitingTime="0.00" waitingCount="0" stopTime="0.00" timeLoss="5.46" rerouteNo="0" devices="tripinfo_132" vType="DEFAULT_VEHTYPE" speedFactor="0.93" vaporized=""/>
    <tripinfo id="23" depart="6.00" departLane="21_3way_C03to4way_D03_0" departPos="5.10" departSpeed="0.00" departDelay="0.71" arrival="70.00" arrivalLane="33_3way_D05to4way_D06_0" arrivalPos="85.60" arrivalSpeed="4.45" duration="64.00" routeLength="375.13" waitingTime="24.00" waitingCount="1" stopTime="0.00" timeLoss="37.25" rerouteNo="0" devices="tripinfo_23" vType="DEFAULT_VEHTYPE" speedFactor="1.05" vaporized=""/>
    <tripinfo id="116" depart="28.00" departLane="24_3way_C06to4way_B06_0" departPos="5.10" departSpeed="0.00" departDelay="1.32" arrival="70.00" arrivalLane="17_4way_B06to3way_B05_0" arrivalPos="85.60" arrivalSpeed="5.97" duration="42.00" routeLength="175.13" waitingTime="20.00" waitingCount="1" stopTime="0.00" timeLoss="29.71" rerouteNo="0" devices="tripinfo_116" vType="DEFAULT_VEHTYPE" speedFactor="1.08" vaporized=""/>
    <tripinfo id="157" depart="37.00" departLane="102_4way_E08to4way_F08_0" departPos="5.10" departSpeed="0.00" departDelay="0.89" arrival="70.00" arrivalLane="102_4way_E08to4way_F08_0" arrivalPos="85.60" arrivalSpeed="5.17" duration="33.00" routeLength="80.50" waitingTime="19.00" waitingCount="1" stopTime="0.00" timeLoss="27.30" rerouteNo="0" devices="tripinfo_157" vType="DEFAULT_VEHTYPE" speedFactor="1.03" vaporized=""/>
    <tripinfo id="206" depart="48.00" departLane="36_4way_D09to3way_D10_0" departPos="5.10" departSpeed="0.00" departDelay="0.62" arrival="70.00" arrivalLane="36_4way_D09to3way_D10_0" arrivalPos="85.60" arrivalSpeed="4.62" duration="22.00" routeLength="80.50" waitingTime="7.00" waitingCount="1" stopTime="0.00" timeLoss="15.49" rerouteNo="0" devices="tripinfo_206" vType="DEFAULT_VEHTYPE" speedFactor="0.89" vaporized=""/>
    <tripinfo id="107" depart="25.00" departLane="114_4way_F06to4way_F07_0" departPos="5.10" departSpeed="0.00" departDelay="0.39" arrival="71.00" arrivalLane="86_4way_E07to4way_D07_0" arrivalPos="85.60" arrivalSpeed="6.19" duration="46.00" routeLength="275.13" waitingTime="14.00" waitingCount="1" stopTime="0.00" timeLoss="25.54" rerouteNo="0" devices="tripinfo_107" vType="DEFAULT_VEHTYPE" speedFactor="1.01" vaporized=""/>
    <tripinfo id="268" depart="62.00" departLane="85_4way_D07to4way_D08_0" departPos="5.10" departSpeed="0.00" departDelay="0.36" arrival="72.00" arrivalLane="85_4way_D07to4way_D08_0" arrivalPos="85.60" arrivalSpeed="12.89" duration="10.00" routeLength="80.50" waitingTime="0.00" waitingCount="0" stopTime="0.00" timeLoss="3.25" rerouteNo="0" devices="tripinfo_268" vType="DEFAULT_VEHTYPE" speedFactor="0.95" vaporized=""/>
    <tripinfo id="147" depart="34.00" departLane="127_4way_G07to4way_G08_0" departPos="5.10" departSpeed="0.00" departDelay="0.19" arrival="73.00" arrivalLane="127_4way_G07to4way_G08_0" arrivalPos="85.60" arrivalSpeed="6.34" duration="39.00" routeLength="80.50" waitingTime="23.00" waitingCount="1" stopTime="0.00" timeLoss="31.86" rerouteNo="0" devices="tripinfo_147" vType="DEFAULT_VEHTYPE" speedFactor="0.82" vaporized=""/>
    <tripinfo id="161" depart="39.00" departLane="95_4way_E06to4way_E05_0" departPos="5.10" departSpeed="0.00" departDelay="1.97" arrival="73.00" arrivalLane="95_4way_E06to4way_E05_0" arrivalPos="85.60" arrivalSpeed="8.58" duration="34.00" routeLength="80.50" waitingTime="17.00" waitingCount="1" stopTime="0.00" timeLoss="27.87" rerouteNo="0" devices="tripinfo_161" vType="DEFAULT_VEHTYPE" speedFactor="1.03" vaporized=""/>
    <tripinfo id="179" depart="42.00" departLane="23_3way_C04to4way_D04_0" departPos="5.10" departSpeed="0.00" departDelay="0.83" arrival="73.00" arrivalLane="23_3way_C04to4way_D04_0" arrivalPos="85.60" arrivalSpeed="7.38" duration="31.00" routeLength="80.50" waitingTime="15.00" waitingCount="1" stopTime="0.00" timeLoss="23.34" rerouteNo="0" devices="tripinfo_179" vType="DEFAULT_VEHTYPE" speedFactor="0.81" vaporized=""/>
    <tripinfo id="33" depart="8.00" departLane="26_3way_C06to4way_D06_0" departPos="5.10" departSpeed="0.00" departDelay="0.41" arrival="75.00" arrivalLane="127_4way_G07to4way_G08_0" arrivalPos="85.60" arrivalSpeed="8.32" duration="67.00" routeLength="575.13" waitingTime="8.00" waitingCount="1" stopTime="0.00" timeLoss="20.13" rerouteNo="0" devices="tripinfo_33" vType="DEFAULT_VEHTYPE" speedFactor="0.90" vaporized=""/>
    <tripinfo id="111" depart="26.00" departLane="63_3way_H06to4way_G06_0" departPos="5.10" departSpeed="0.00" departDelay="0.47" arrival="75.00" arrivalLane="95_4way_E06to4way_E05_0" arrivalPos="85.60" arrivalSpeed="9.27" duration="49.00" routeLength="375.13" waitingTime="7.00" waitingCount="1" stopTime="0.00" timeLoss="19.97" rerouteNo="0" devices="tripinfo_111" vType="DEFAULT_VEHTYPE" speedFactor="0.96" vaporized=""/>
    <tripinfo id="5" depart="2.00" departLane="81_4way_D03to4way_E03_0" departPos="5.10" departSpeed="0.00" departDelay="0.85" arrival="76.00" arrivalLane="108_4way_F03to4way_F04_0" arrivalPos="85.60" arrivalSpeed="16.84" duration="74.00" routeLength="275.13" waitingTime="46.00" waitingCount="1" stopTime="0.00" timeLoss="57.69" rerouteNo="0" devices="tripinfo_5" vType="DEFAULT_VEHTYPE" speedFactor="1.28" vaporized=""/>
    <tripinfo id="70" depart="17.00" departLane="95_4way_E06to4way_E05_0" departPos="5.10" departSpeed="0.00" departDelay="0.90" arrival="76.00" arrivalLane="96_4way_E05to4way_F05_0" arrivalPos="85.60" arrivalSpeed="14.66" duration="59.00" routeLength="175.13" waitingTime="37.00" waitingCount="1" stopTime="0.00" timeLoss="47.12" rerouteNo="0" devices="tripinfo_70" vType="DEFAULT_VEHTYPE" speedFactor="1.14" vaporized=""/>
    <tripinfo id="15" depart="4.00" departLane="107_4way_F02to4way_G02_0" departPos="5.10" departSpeed="0.00" departDelay="0.55" arrival="77.00" arrivalLane="55_4way_G02to3way_H02_0" arrivalPos="85.60" arrivalSpeed="17.28" duration="73.00" routeLength="180.50" waitingTime="50.00" waitingCount="1" stopTime="0.00" timeLoss="62.32" rerouteNo="0" devices="tripinfo_15" vType="DEFAULT_VEHTYPE" speedFactor="1.27" vaporized=""/>
    <tripinfo id="34" depart="8.00" departLane="88_4way_D08to4way_E08_0" departPos="5.10" departSpeed="0.00" departDelay="0.18" arrival="77.00" arrivalLane="119_4way_F08to4way_G08_0" arrivalPos="85.60" arrivalSpeed="12.64" duration="69.00" routeLength="280.50" waitingTime="39.00" waitingCount="1" stopTime="0.00" timeLoss="47.47" rerouteNo="0" devices="tripinfo_34" vType="DEFAULT_VEHTYPE" speedFactor="0.96" vaporized=""/>
    <tripinfo id="63" depart="15.00" departLane="74_4way_B09to4way_C09_0" departPos="5.10" departSpeed="0.00" departDelay="0.51" arrival="77.00" arrivalLane="79_4way_C09to4way_D09_0" arrivalPos="85.60" arrivalSpeed="13.20" duration="62.00" routeLength="180.50" waitingTime="39.00" waitingCount="1" stopTime="0.00" timeLoss="48.57" rerouteNo="0" devices="tripinfo_63" vType="DEFAULT_VEHTYPE" speedFactor="1.02" vaporized=""/>
    <tripinfo id="52" depart="12.00" departLane="125_4way_G06to4way_G05_0" departPos="5.10" departSpeed="0.00" departDelay="0.04" arrival="78.00" arrivalLane="61_4way_G05to3way_H05_0" arrivalPos="85.60" arrivalSpeed="11.37" duration="66.00" routeLength="175.13" waitingTime="42.00" waitingCount="1" stopTime="0.00" timeLoss="50.17" rerouteNo="0" devices="tripinfo_52" vType="DEFAULT_VEHTYPE" speedFactor="0.87" vaporized=""/>
    <tripinfo id="96" depart="23.00" departLane="56_3way_H03to3way_H04_0" departPos="5.10" departSpeed="0.00" departDelay="0.92" arrival="78.00" arrivalLane="58_3way_H04to3way_H05_0" arrivalPos="85.60" arrivalSpeed="15.23" duration="55.00" routeLength="180.50" waitingTime="31.00" waitingCount="1" stopTime="0.00" timeLoss="42.95" rerouteNo="0" devices="tripinfo_96" vType="DEFAULT_VEHTYPE" speedFactor="1.10" vaporized=""/>
    <tripinfo id="259" depart="60.00" departLane="5_3way_B05to3way_A05_0" departPos="5.10" departSpeed="0.00" departDelay="0.43" arrival="78.00" arrivalLane="1_3way_A05to3way_A04_0" arrivalPos="85.60" arrivalSpeed="13.44" duration="18.00" routeLength="175.13" waitingTime="0.00" waitingCount="0" stopTime="0.00" timeLoss="5.26" rerouteNo="0" devices="tripinfo_259" vType="DEFAULT_VEHTYPE" speedFactor="1.05" vaporized=""/>
    <tripinfo id="135" depart="32.00" departLane="125_4way_G06to4way_G05_0" departPos="5.10" departSpeed="0.00" departDelay="0.95" arrival="79.00" arrivalLane="61_4way_G05to3way_H05_0" arrivalPos="85.60" arrivalSpeed="14.71" duration="47.00" routeLength="175.13" waitingTime="22.00" waitingCount="1" stopTime="0.00" timeLoss="34.82" rerouteNo="0" devices="tripinfo_135" vType="DEFAULT_VEHTYPE" speedFactor="1.12" vaporized=""/>
    <tripinfo id="50" depart="12.00" departLane="33_4way_D06to3way_D05_0" departPos="5.10" departSpeed="0.00" departDelay="0.50" arrival="80.00" arrivalLane="59_4way_G04to3way_H04_0" arrivalPos="85.60" arrivalSpeed="13.90" duration="68.00" routeLength="575.13" waitingTime="14.00" waitingCount="1" stopTime="0.00" timeLoss="27.54" rerouteNo="0" devices="tripinfo_50" vType="DEFAULT_VEHTYPE" speedFactor="1.04" vaporized=""/>
    <tripinfo id="130" depart="30.00" departLane="108_4way_F03to4way_F04_0" departPos="5.10" departSpeed="0.00" departDelay="0.10" arrival="80.00" arrivalLane="94_4way_F04to4way_E04_0" arrivalPos="85.60" arrivalSpeed="13.36" duration="50.00" routeLength="175.13" waitingTime="27.00" waitingCount="1" stopTime="0.00" timeLoss="36.06" rerouteNo="0" devices="tripinfo_130" vType="DEFAULT_VEHTYPE" speedFactor="1.01" vaporized=""/>
    <tripinfo id="171" depart="40.00" departLane="45_3way_F00to4way_F01_0" departPos="5.10" departSpeed="0.00" departDelay="0.67" arrival="80.00" arrivalLane="31_4way_E01to3way_D01_0" arrivalPos="85.60" arrivalSpeed="10.68" duration="40.00" routeLength="275.13" waitingTime="6.00" waitingCount="1" stopTime="0.00" timeLoss="17.87" rerouteNo="0" devices="tripinfo_171" vType="DEFAULT_VEHTYPE" speedFactor="0.94" vaporized=""/>
    <tripinfo id="109" depart="26.00" departLane="108_4way_F04to4way_F03_0" departPos="5.10" departSpeed="0.00" departDelay="0.93" arrival="82.00" arrivalLane="55_4way_G02to3way_H02_0" arrivalPos="85.60" arrivalSpeed="13.09" duration="56.00" routeLength="375.13" waitingTime="14.00" waitingCount="1" stopTime="0.00" timeLoss="28.30" rerouteNo="0" devices="tripinfo_109" vType="DEFAULT_VEHTYPE" speedFactor="1.02" vaporized=""/>
    <tripinfo id="136" depart="32.00" departLane="111_4way_F04to4way_G04_0" departPos="5.10" departSpeed="0.00" departDelay="0.72" arrival="82.00" arrivalLane="124_4way_G04to4way_G05_0" arrivalPos="85.60" arrivalSpeed="14.13" duration="50.00" routeLength="175.13" waitingTime="23.00" waitingCount="1" stopTime="0.00" timeLoss="37.87" rerouteNo="0" devices="tripinfo_136" vType="DEFAULT_VEHTYPE" speedFactor="1.08" vaporized=""/>
    <tripinfo id="248" depart="58.00" departLane="90_4way_F01to4way_E01_0" departPos="5.10" departSpeed="0.00" departDelay="0.96" arrival="82.00" arrivalLane="31_4way_E01to3way_D01_0" arrivalPos="85.60" arrivalSpeed="12.29" duration="24.00" routeLength="180.50" waitingTime="0.00" waitingCount="0" stopTime="0.00" timeLoss="10.61" rerouteNo="0" devices="tripinfo_248" vType="DEFAULT_VEHTYPE" speedFactor="0.99" vaporized=""/>
    <tripinfo id="270" depart="63.00" departLane="112_4way_F05to4way_F06_0" departPos="5.10" departSpeed="0.00" departDelay="0.90" arrival="82.00" arrivalLane="98_4way_F06to4way_E06_0" arrivalPos="85.60" arrivalSpeed="13.02" duration="19.00" routeLength="175.13" waitingTime="0.00" waitingCount="0" stopTime="0.00" timeLoss="5.48" rerouteNo="0" devices="tripinfo_270" vType="DEFAULT_VEHTYPE" speedFactor="1.03" vaporized=""/>
    <tripinfo id="122" depart="29.00" departLane="77_4way_C08to4way_C09_0" departPos="5.10" departSpeed="0.00" departDelay="0.94" arrival="83.00" arrivalLane="42_3way_E10to3way_F10_0" arrivalPos="85.60" arrivalSpeed="13.01" duration="54.00" routeLength="480.29" waitingTime="10.00" waitingCount="1" stopTime="0.00" timeLoss="23.86" rerouteNo="0" devices="tripinfo_122" vType="DEFAULT_VEHTYPE" speedFactor="1.17" vaporized=""/>
    <tripinfo id="290" depart="67.00" departLane="8_3way_A08to3way_A07_0" departPos="5.10" departSpeed="0.00" departDelay="0.30" arrival="84.00" arrivalLane="6_3way_A07to3way_A06_0" arrivalPos="85.60" arrivalSpeed="13.36" duration="17.00" routeLength="180.50" waitingTime="0.00" waitingCount="0" stopTime="0.00" timeLoss="3.89" rerouteNo="0" devices="tripinfo_290" vType="DEFAULT_VEHTYPE" speedFactor="1.01" vaporized=""/>
    <tripinfo id="60" depart="14.00" departLane="87_4way_D08to4way_D09_0" departPos="5.10" departSpeed="0.00" departDelay="0.20" arrival="86.00" arrivalLane="74_4way_C09to4way_B09_0" arrivalPos="85.60" arrivalSpeed="11.77" duration="72.00" routeLength="275.13" waitingTime="41.00" waitingCount="1" stopTime="0.00" timeLoss="48.08" rerouteNo="0" devices="tripinfo_60" vType="DEFAULT_VEHTYPE" speedFactor="0.87" vaporized=""/>
    <tripinfo id="118" depart="28.00" departLane="36_3way_D10to4way_D09_0" departPos="5.10" departSpeed="0.00" departDelay="0.86" arrival="86.00" arrivalLane="103_4way_E09to4way_F09_0" arrivalPos="85.60" arrivalSpeed="13.57" duration="58.00" routeLength="275.13" waitingTime="29.00" waitingCount="1" stopTime="0.00" timeLoss="37.81" rerouteNo="0" devices="tripinfo_118" vType="DEFAULT_VEHTYPE" speedFactor="1.04" vaporized=""/>
    <tripinfo id="329" depart="76.00" departLane="70_4way_B07to4way_B08_0" departPos="5.10" departSpeed="0.00" departDelay="0.33" arrival="86.00" arrivalLane="70_4way_B07to4way_B08_0" arrivalPos="85.60" arrivalSpeed="11.59" duration="10.00" routeLength="80.50" waitingTime="0.00" waitingCount="0" stopTime="0.00" timeLoss="2.58" rerouteNo="0" devices="tripinfo_329" vType="DEFAULT_VEHTYPE" speedFactor="0.86" vaporized=""/>
    <tripinfo id="28" depart="7.00" departLane="27_3way_C10to3way_D10_0" departPos="5.10" departSpeed="0.00" departDelay="0.56" arrival="87.00" arrivalLane="46_3way_F10to3way_G10_0" arrivalPos="85.60" arrivalSpeed="12.90" duration="80.00" routeLength="380.50" waitingTime="41.00" waitingCount="1" stopTime="0.00" timeLoss="53.08" rerouteNo="0" devices="tripinfo_28" vType="DEFAULT_VEHTYPE" speedFactor="1.02" vaporized=""/>
    <tripinfo id="79" depart="19.00" departLane="103_4way_F09to4way_E09_0" departPos="5.10" departSpeed="0.00" departDelay="0.83" arrival="87.00" arrivalLane="99_4way_E08to4way_E07_0" arrivalPos="85.60" arrivalSpeed="12.88" duration="68.00" routeLength="275.13" waitingTime="36.00" waitingCount="1" stopTime="0.00" timeLoss="46.48" rerouteNo="0" devices="tripinfo_79" vType="DEFAULT_VEHTYPE" speedFactor="0.95" vaporized=""/>
    <tripinfo id="113" depart="26.00" departLane="60_3way_H06to3way_H05_0" departPos="5.10" departSpeed="0.00" departDelay="0.01" arrival="88.00" arrivalLane="56_3way_H04to3way_H03_0" arrivalPos="85.60" arrivalSpeed="10.73" duration="62.00" routeLength="280.50" waitingTime="27.00" waitingCount="1" stopTime="0.00" timeLoss="36.21" rerouteNo="0" devices="tripinfo_113" vType="DEFAULT_VEHTYPE" speedFactor="0.81" vaporized=""/>
    <tripinfo id="82" depart="19.00" departLane="68_3way_H09to4way_G09_0" departPos="5.10" departSpeed="0.00" departDelay="0.14" arrival="90.00" arrivalLane="101_4way_E09to4way_E08_0" arrivalPos="85.60" arrivalSpeed="13.27" duration="71.00" routeLength="375.13" waitingTime="29.00" waitingCount="1" stopTime="0.00" timeLoss="43.21" rerouteNo="0" devices="tripinfo_82" vType="DEFAULT_VEHTYPE" speedFactor="1.00" vaporized=""/>
    <tripinfo id="273" depart="63.00" departLane="30_3way_D01to4way_D03_0" departPos="5.10" departSpeed="0.00" departDelay="0.21" arrival="90.00" arrivalLane="21_4way_D03to3way_C03_0" arrivalPos="85.60" arrivalSpeed="12.55" duration="27.00" routeLength="275.13" waitingTime="0.00" waitingCount="0" stopTime="0.00" timeLoss="6.06" rerouteNo="0" devices="tripinfo_273" vType="DEFAULT_VEHTYPE" speedFactor="1.00" vaporized=""/>
    <tripinfo id="299" depart="69.00" departLane="76_4way_C07to4way_D07_0" departPos="5.10" departSpeed="0.00" departDelay="0.23" arrival="90.00" arrivalLane="85_4way_D07to4way_D08_0" arrivalPos="85.60" arrivalSpeed="13.15" duration="21.00" routeLength="175.13" waitingTime="0.00" waitingCount="0" stopTime="0.00" timeLoss="7.41" rerouteNo="0" devices="tripinfo_299" vType="DEFAULT_VEHTYPE" speedFactor="1.01" vaporized=""/>
    <tripinfo id="281" depart="65.00" departLane="117_4way_G07to4way_F07_0" departPos="5.10" departSpeed="0.00" departDelay="0.37" arrival="92.00" arrivalLane="114_4way_F07to4way_F06_0" arrivalPos="85.60" arrivalSpeed="12.10" duration="27.00" routeLength="175.13" waitingTime="0.00" waitingCount="0" stopTime="0.00" timeLoss="12.05" rerouteNo="0" devices="tripinfo_281" vType="DEFAULT_VEHTYPE" speedFactor="0.96" vaporized=""/>
    <tripinfo id="6" depart="2.00" departLane="111_4way_G04to4way_F04_0" departPos="5.10" departSpeed="0.00" departDelay="0.62" arrival="93.00" arrivalLane="32_4way_D04to3way_D05_0" arrivalPos="85.60" arrivalSpeed="13.08" duration="91.00" routeLength="380.30" waitingTime="49.00" waitingCount="2" stopTime="0.00" timeLoss="61.32" rerouteNo="0" devices="tripinfo_6" vType="DEFAULT_VEHTYPE" speedFactor="0.95" vaporized=""/>
    <tripinfo id="13" depart="3.00" departLane="126_4way_G06to4way_G07_0" departPos="5.10" departSpeed="0.00" departDelay="0.01" arrival="94.00" arrivalLane="46_3way_G10to3way_F10_0" arrivalPos="85.60" arrivalSpeed="13.02" duration="91.00" routeLength="475.13" waitingTime="43.00" waitingCount="1" stopTime="0.00" timeLoss="54.39" rerouteNo="0" devices="tripinfo_13" vType="DEFAULT_VEHTYPE" speedFactor="0.96" vaporized=""/>