<?xml version="1.0" encoding="UTF-8"?>

<!-- generated on 2023-07-27 05:20:13 by Eclipse SUMO sumo Version 1.12.0
<configuration xmlns:xsi="http://www.w3.org/2001/XMLSchema-instance" xsi:noNamespaceSchemaLocation="http://sumo.dlr.de/xsd/sumoConfiguration.xsd">

    <input>
        <net-file value="../../data_generation/sq.net.xml"/>
        <route-files value="../../data_generation/sq.rou.xml"/>
    </input>

    <output>
        <tripinfo-output value="tripinfo.xml"/>
        <statistic-output value="statistic.xml"/>
    </output>

    <time>
        <begin value="0"/>
        <end value="3600"/>
    </time>

    <processing>
        <time-to-teleport value="-1"/>
    </processing>

    <traci_server>
        <remote-port value="40863"/>
    </traci_server>

    <random_number>
        <seed value="1395"/>
    </random_number>

    <gui_only>
        <gui-settings-file value="../../data_generation/view_HY_0402.xml"/>
    </gui_only>

</configuration>
-->

<tripinfos xmlns:xsi="http://www.w3.org/2001/XMLSchema-instance" xsi:noNamespaceSchemaLocation="http://sumo.dlr.de/xsd/tripinfo_file.xsd">
    <tripinfo id="1" depart="1.00" departLane="23_3way_5to4way_6_0" departPos="5.10" departSpeed="0.00" departDelay="0.43" arrival="11.00" arrivalLane="23_3way_5to4way_6_0" arrivalPos="85.60" arrivalSpeed="13.41" duration="10.00" routeLength="80.50" waitingTime="0.00" waitingCount="0" stopTime="0.00" timeLoss="3.58" rerouteNo="0" devices="tripinfo_1" vType="DEFAULT_VEHTYPE" speedFactor="1.04" vaporized=""/>
    <tripinfo id="0" depart="0.00" departLane="35_4way_7to4way_6_0" departPos="5.10" departSpeed="0.00" departDelay="0.00" arrival="17.00" arrivalLane="23_4way_6to3way_5_0" arrivalPos="85.60" arrivalSpeed="13.37" duration="17.00" routeLength="180.50" waitingTime="0.00" waitingCount="0" stopTime="0.00" timeLoss="3.65" rerouteNo="0" devices="tripinfo_0" vType="DEFAULT_VEHTYPE" speedFactor="1.00" vaporized=""/>
    <tripinfo id="2" depart="2.00" departLane="26_4way_11to4way_16_0" departPos="5.10" departSpeed="0.00" departDelay="0.86" arrival="19.00" arrivalLane="17_4way_16to3way_21_0" arrivalPos="85.60" arrivalSpeed="13.39" duration="17.00" routeLength="180.50" waitingTime="0.00" waitingCount="0" stopTime="0.00" timeLoss="3.95" rerouteNo="0" devices="tripinfo_2" vType="DEFAULT_VEHTYPE" speedFactor="1.04" vaporized=""/>
    <tripinfo id="16" depart="11.00" departLane="3_4way_6to3way_1_0" departPos="5.10" departSpeed="0.00" departDelay="1.86" arrival="22.00" arrivalLane="3_4way_6to3way_1_0" arrivalPos="85.60" arrivalSpeed="11.30" duration="11.00" routeLength="80.50" waitingTime="0.00" waitingCount="0" stopTime="0.00" timeLoss="3.69" rerouteNo="0" devices="tripinfo_16" vType="DEFAULT_VEHTYPE" speedFactor="0.90" vaporized=""/>
    <tripinfo id="21" depart="14.00" departLane="18_3way_22to3way_23_0" departPos="5.10" departSpeed="0.00" departDelay="2.00" arrival="24.00" arrivalLane="18_3way_22to3way_23_0" arrivalPos="85.60" arrivalSpeed="10.15" duration="10.00" routeLength="80.50" waitingTime="0.00" waitingCount="0" stopTime="0.00" timeLoss="2.91" rerouteNo="0" devices="tripinfo_21" vType="DEFAULT_VEHTYPE" speedFactor="0.82" vaporized=""/>
    <tripinfo id="24" depart="14.00" departLane="8_3way_9to3way_14_0" departPos="5.10" departSpeed="0.00" departDelay="0.29" arrival="24.00" arrivalLane="8_3way_9to3way_14_0" arrivalPos="85.60" arrivalSpeed="12.35" duration="10.00" routeLength="80.50" waitingTime="0.00" waitingCount="0" stopTime="0.00" timeLoss="3.15" rerouteNo="0" devices="tripinfo_24" vType="DEFAULT_VEHTYPE" speedFactor="0.97" vaporized=""/>
    <tripinfo id="9" depart="6.00" departLane="29_4way_12to4way_17_0" departPos="5.10" departSpeed="0.00" departDelay="0.86" arrival="26.00" arrivalLane="34_4way_17to4way_18_0" arrivalPos="85.60" arrivalSpeed="11.74" duration="20.00" routeLength="175.13" waitingTime="0.00" waitingCount="0" stopTime="0.00" timeLoss="5.36" rerouteNo="0" devices="tripinfo_9" vType="DEFAULT_VEHTYPE" speedFactor="0.91" vaporized=""/>
    <tripinfo id="15" depart="9.00" departLane="5_3way_5to3way_10_0" departPos="5.10" departSpeed="0.00" departDelay="0.43" arrival="26.00" arrivalLane="4_3way_10to3way_15_0" arrivalPos="85.60" arrivalSpeed="13.80" duration="17.00" routeLength="180.50" waitingTime="0.00" waitingCount="0" stopTime="0.00" timeLoss="3.98" rerouteNo="0" devices="tripinfo_15" vType="DEFAULT_VEHTYPE" speedFactor="1.05" vaporized=""/>
    <tripinfo id="4" depart="3.00" departLane="16_3way_21to3way_22_0" departPos="5.10" departSpeed="0.00" departDelay="0.71" arrival="28.00" arrivalLane="20_3way_23to4way_18_0" arrivalPos="85.60" arrivalSpeed="13.08" duration="25.00" routeLength="275.13" waitingTime="0.00" waitingCount="0" stopTime="0.00" timeLoss="5.08" rerouteNo="0" devices="tripinfo_4" vType="DEFAULT_VEHTYPE" speedFactor="1.02" vaporized=""/>
    <tripinfo id="22" depart="13.00" departLane="4_3way_15to3way_10_0" departPos="5.10" departSpeed="0.00" departDelay="0.43" arrival="30.00" arrivalLane="5_3way_10to3way_5_0" arrivalPos="85.60" arrivalSpeed="13.55" duration="17.00" routeLength="180.50" waitingTime="0.00" waitingCount="0" stopTime="0.00" timeLoss="3.22" rerouteNo="0" devices="tripinfo_22" vType="DEFAULT_VEHTYPE" speedFactor="1.00" vaporized=""/>
    <tripinfo id="27" depart="16.00" departLane="21_3way_3to3way_9_0" departPos="5.10" departSpeed="0.00" departDelay="0.57" arrival="33.00" arrivalLane="21_3way_3to3way_9_0" arrivalPos="188.80" arrivalSpeed="14.13" duration="17.00" routeLength="183.70" waitingTime="0.00" waitingCount="0" stopTime="0.00" timeLoss="3.54" rerouteNo="0" devices="tripinfo_27" vType="DEFAULT_VEHTYPE" speedFactor="1.03" vaporized=""/>
    <tripinfo id="13" depart="8.00" departLane="10_3way_21to3way_15_0" departPos="5.10" departSpeed="0.00" departDelay="0.57" arrival="34.00" arrivalLane="4_3way_15to3way_10_0" arrivalPos="85.60" arrivalSpeed="13.09" duration="26.00" routeLength="283.70" waitingTime="0.00" waitingCount="0" stopTime="0.00" timeLoss="4.29" rerouteNo="0" devices="tripinfo_13" vType="DEFAULT_VEHTYPE" speedFactor="0.98" vaporized=""/>
    <tripinfo id="18" depart="11.00" departLane="10_3way_15to3way_21_0" departPos="5.10" departSpeed="0.00" departDelay="0.71" arrival="36.00" arrivalLane="16_3way_21to3way_22_0" arrivalPos="85.60" arrivalSpeed="12.79" duration="25.00" routeLength="277.30" waitingTime="0.00" waitingCount="0" stopTime="0.00" timeLoss="3.33" rerouteNo="0" devices="tripinfo_18" vType="DEFAULT_VEHTYPE" speedFactor="0.96" vaporized=""/>
    <tripinfo id="20" depart="12.00" departLane="21_3way_3to3way_9_0" departPos="5.10" departSpeed="0.00" departDelay="0.57" arrival="39.00" arrivalLane="8_3way_9to3way_14_0" arrivalPos="85.60" arrivalSpeed="12.20" duration="27.00" routeLength="283.70" waitingTime="0.00" waitingCount="0" stopTime="0.00" timeLoss="3.44" rerouteNo="0" devices="tripinfo_20" vType="DEFAULT_VEHTYPE" speedFactor="0.89" vaporized=""/>
    <tripinfo id="37" depart="22.00" departLane="16_3way_21to3way_22_0" departPos="5.10" departSpeed="0.00" departDelay="0.86" arrival="39.00" arrivalLane="18_3way_22to3way_23_0" arrivalPos="85.60" arrivalSpeed="12.69" duration="17.00" routeLength="180.50" waitingTime="0.00" waitingCount="0" stopTime="0.00" timeLoss="3.45" rerouteNo="0" devices="tripinfo_37" vType="DEFAULT_VEHTYPE" speedFactor="0.99" vaporized=""/>
    <tripinfo id="23" depart="14.00" departLane="22_3way_3to4way_8_0" departPos="5.10" departSpeed="0.00" departDelay="0.86" arrival="41.00" arrivalLane="31_4way_13to4way_18_0" arrivalPos="85.60" arrivalSpeed="11.22" duration="27.00" routeLength="280.50" waitingTime="0.00" waitingCount="0" stopTime="0.00" timeLoss="3.78" rerouteNo="0" devices="tripinfo_23" vType="DEFAULT_VEHTYPE" speedFactor="0.87" vaporized=""/>
    <tripinfo id="63" depart="36.00" departLane="23_4way_6to3way_5_0" departPos="5.10" departSpeed="0.00" departDelay="0.00" arrival="46.00" arrivalLane="23_4way_6to3way_5_0" arrivalPos="85.60" arrivalSpeed="12.08" duration="10.00" routeLength="80.50" waitingTime="0.00" waitingCount="0" stopTime="0.00" timeLoss="3.23" rerouteNo="0" devices="tripinfo_63" vType="DEFAULT_VEHTYPE" speedFactor="0.95" vaporized=""/>
    <tripinfo id="53" depart="31.00" departLane="16_3way_21to3way_22_0" departPos="5.10" departSpeed="0.00" departDelay="0.72" arrival="48.00" arrivalLane="19_3way_22to4way_17_0" arrivalPos="85.60" arrivalSpeed="17.42" duration="17.00" routeLength="175.13" waitingTime="0.00" waitingCount="0" stopTime="0.00" timeLoss="6.51" rerouteNo="0" devices="tripinfo_53" vType="DEFAULT_VEHTYPE" speedFactor="1.27" vaporized=""/>
    <tripinfo id="29" depart="17.00" departLane="18_3way_22to3way_23_0" departPos="5.10" departSpeed="0.00" departDelay="0.43" arrival="50.00" arrivalLane="7_3way_19to3way_14_0" arrivalPos="85.60" arrivalSpeed="12.53" duration="33.00" routeLength="377.30" waitingTime="0.00" waitingCount="0" stopTime="0.00" timeLoss="3.98" rerouteNo="0" devices="tripinfo_29" vType="DEFAULT_VEHTYPE" speedFactor="0.95" vaporized=""/>
    <tripinfo id="71" depart="41.00" departLane="24_4way_8to3way_9_0" departPos="5.10" departSpeed="0.00" departDelay="0.43" arrival="50.00" arrivalLane="24_4way_8to3way_9_0" arrivalPos="85.60" arrivalSpeed="15.63" duration="9.00" routeLength="80.50" waitingTime="0.00" waitingCount="0" stopTime="0.00" timeLoss="3.83" rerouteNo="0" devices="tripinfo_71" vType="DEFAULT_VEHTYPE" speedFactor="1.13" vaporized=""/>
    <tripinfo id="30" depart="19.00" departLane="14_3way_3to3way_2_0" departPos="5.10" departSpeed="0.00" departDelay="1.86" arrival="52.00" arrivalLane="29_4way_12to4way_17_0" arrivalPos="85.60" arrivalSpeed="14.11" duration="33.00" routeLength="375.13" waitingTime="0.00" waitingCount="0" stopTime="0.00" timeLoss="5.89" rerouteNo="0" devices="tripinfo_30" vType="DEFAULT_VEHTYPE" speedFactor="1.05" vaporized=""/>
    <tripinfo id="31" depart="22.00" departLane="14_3way_3to3way_2_0" departPos="5.10" departSpeed="0.00" departDelay="4.29" arrival="53.00" arrivalLane="29_4way_12to4way_17_0" arrivalPos="85.60" arrivalSpeed="14.96" duration="31.00" routeLength="375.13" waitingTime="0.00" waitingCount="0" stopTime="0.00" timeLoss="6.04" rerouteNo="0" devices="tripinfo_31" vType="DEFAULT_VEHTYPE" speedFactor="1.11" vaporized=""/>
    <tripinfo id="36" depart="23.00" departLane="22_3way_3to4way_8_0" departPos="5.10" departSpeed="0.00" departDelay="2.43" arrival="56.00" arrivalLane="20_4way_18to3way_23_0" arrivalPos="85.60" arrivalSpeed="16.07" duration="33.00" routeLength="380.50" waitingTime="0.00" waitingCount="0" stopTime="0.00" timeLoss="8.89" rerouteNo="0" devices="tripinfo_36" vType="DEFAULT_VEHTYPE" speedFactor="1.16" vaporized=""/>
    <tripinfo id="40" depart="23.00" departLane="1_3way_2to3way_1_0" departPos="5.10" departSpeed="0.00" departDelay="0.14" arrival="56.00" arrivalLane="5_3way_5to3way_10_0" arrivalPos="85.60" arrivalSpeed="7.38" duration="33.00" routeLength="377.30" waitingTime="0.00" waitingCount="0" stopTime="0.00" timeLoss="7.81" rerouteNo="0" devices="tripinfo_40" vType="DEFAULT_VEHTYPE" speedFactor="1.08" vaporized=""/>
    <tripinfo id="69" depart="40.00" departLane="32_4way_13to4way_8_0" departPos="5.10" departSpeed="0.00" departDelay="0.57" arrival="60.00" arrivalLane="22_4way_8to3way_3_0" arrivalPos="85.60" arrivalSpeed="10.20" duration="20.00" routeLength="180.50" waitingTime="0.00" waitingCount="0" stopTime="0.00" timeLoss="4.08" rerouteNo="0" devices="tripinfo_69" vType="DEFAULT_VEHTYPE" speedFactor="0.82" vaporized=""/>
    <tripinfo id="89" depart="51.00" departLane="23_4way_6to3way_5_0" departPos="5.10" departSpeed="0.00" departDelay="0.14" arrival="61.00" arrivalLane="23_4way_6to3way_5_0" arrivalPos="85.60" arrivalSpeed="12.49" duration="10.00" routeLength="80.50" waitingTime="0.00" waitingCount="0" stopTime="0.00" timeLoss="2.95" rerouteNo="0" devices="tripinfo_89" vType="DEFAULT_VEHTYPE" speedFactor="0.93" vaporized=""/>
    <tripinfo id="94" depart="54.00" departLane="7_3way_19to3way_14_0" departPos="5.10" departSpeed="0.00" departDelay="0.29" arrival="63.00" arrivalLane="7_3way_19to3way_14_0" arrivalPos="85.60" arrivalSpeed="13.87" duration="9.00" routeLength="80.50" waitingTime="0.00" waitingCount="0" stopTime="0.00" timeLoss="3.48" rerouteNo="0" devices="tripinfo_94" vType="DEFAULT_VEHTYPE" speedFactor="1.08" vaporized=""/>
    <tripinfo id="98" depart="56.00" departLane="1_3way_2to3way_1_0" departPos="5.10" departSpeed="0.00" departDelay="0.00" arrival="66.00" arrivalLane="1_3way_2to3way_1_0" arrivalPos="85.60" arrivalSpeed="11.90" duration="10.00" routeLength="80.50" waitingTime="0.00" waitingCount="0" stopTime="0.00" timeLoss="2.77" rerouteNo="0" devices="tripinfo_98" vType="DEFAULT_VEHTYPE" speedFactor="0.88" vaporized=""/>
    <tripinfo id="58" depart="34.00" departLane="27_4way_6to4way_11_0" departPos="5.10" departSpeed="0.00" departDelay="0.86" arrival="70.00" arrivalLane="17_4way_16to3way_21_0" arrivalPos="85.60" arrivalSpeed="4.19" duration="36.00" routeLength="280.50" waitingTime="5.00" waitingCount="1" stopTime="0.00" timeLoss="14.36" rerouteNo="0" devices="tripinfo_58" vType="DEFAULT_VEHTYPE" speedFactor="0.93" vaporized=""/>
    <tripinfo id="64" depart="37.00" departLane="27_4way_11to4way_6_0" departPos="5.10" departSpeed="0.00" departDelay="0.43" arrival="70.00" arrivalLane="27_4way_11to4way_6_0" arrivalPos="85.60" arrivalSpeed="6.16" duration="33.00" routeLength="80.50" waitingTime="18.00" waitingCount="1" stopTime="0.00" timeLoss="26.76" rerouteNo="0" devices="tripinfo_64" vType="DEFAULT_VEHTYPE" speedFactor="0.96" vaporized=""/>
    <tripinfo id="35" depart="20.00" departLane="22_3way_3to4way_8_0" departPos="5.10" departSpeed="0.00" departDelay="0.00" arrival="71.00" arrivalLane="13_4way_18to3way_19_0" arrivalPos="85.60" arrivalSpeed="6.25" duration="51.00" routeLength="375.13" waitingTime="11.00" waitingCount="1" stopTime="0.00" timeLoss="20.95" rerouteNo="0" devices="tripinfo_35" vType="DEFAULT_VEHTYPE" speedFactor="0.94" vaporized=""/>
    <tripinfo id="78" depart="45.00" departLane="34_4way_17to4way_18_0" departPos="5.10" departSpeed="0.00" departDelay="0.43" arrival="72.00" arrivalLane="34_4way_17to4way_18_0" arrivalPos="85.60" arrivalSpeed="6.57" duration="27.00" routeLength="80.50" waitingTime="12.00" waitingCount="1" stopTime="0.00" timeLoss="21.29" rerouteNo="0" devices="tripinfo_78" vType="DEFAULT_VEHTYPE" speedFactor="1.03" vaporized=""/>
    <tripinfo id="45" depart="26.00" departLane="3_3way_1to4way_6_0" departPos="5.10" departSpeed="0.00" departDelay="0.29" arrival="73.00" arrivalLane="3_3way_1to4way_6_0" arrivalPos="85.60" arrivalSpeed="7.74" duration="47.00" routeLength="80.50" waitingTime="30.00" waitingCount="1" stopTime="0.00" timeLoss="40.82" rerouteNo="0" devices="tripinfo_45" vType="DEFAULT_VEHTYPE" speedFactor="1.00" vaporized=""/>
    <tripinfo id="111" depart="64.00" departLane="7_3way_14to3way_19_0" departPos="5.10" departSpeed="0.00" departDelay="0.57" arrival="74.00" arrivalLane="7_3way_14to3way_19_0" arrivalPos="85.60" arrivalSpeed="10.83" duration="10.00" routeLength="80.50" waitingTime="0.00" waitingCount="0" stopTime="0.00" timeLoss="3.06" rerouteNo="0" devices="tripinfo_111" vType="DEFAULT_VEHTYPE" speedFactor="0.84" vaporized=""/>
    <tripinfo id="76" depart="44.00" departLane="11_3way_15to4way_16_0" departPos="5.10" departSpeed="0.00" departDelay="0.57" arrival="75.00" arrivalLane="11_3way_15to4way_16_0" arrivalPos="85.60" arrivalSpeed="11.01" duration="31.00" routeLength="80.50" waitingTime="15.00" waitingCount="1" stopTime="0.00" timeLoss="23.67" rerouteNo="0" devices="tripinfo_76" vType="DEFAULT_VEHTYPE" speedFactor="0.90" vaporized=""/>
    <tripinfo id="12" depart="7.00" departLane="9_4way_13to3way_14_0" departPos="5.10" departSpeed="0.00" departDelay="0.14" arrival="76.00" arrivalLane="8_3way_14to3way_9_0" arrivalPos="85.60" arrivalSpeed="15.33" duration="69.00" routeLength="175.13" waitingTime="48.00" waitingCount="1" stopTime="0.00" timeLoss="57.12" rerouteNo="0" devices="tripinfo_12" vType="DEFAULT_VEHTYPE" speedFactor="1.16" vaporized=""/>
    <tripinfo id="54" depart="31.00" departLane="35_4way_6to4way_7_0" departPos="5.10" departSpeed="0.00" departDelay="0.14" arrival="76.00" arrivalLane="36_4way_7to4way_8_0" arrivalPos="85.60" arrivalSpeed="13.71" duration="45.00" routeLength="180.50" waitingTime="24.00" waitingCount="1" stopTime="0.00" timeLoss="32.90" rerouteNo="0" devices="tripinfo_54" vType="DEFAULT_VEHTYPE" speedFactor="1.07" vaporized=""/>
    <tripinfo id="99" depart="57.00" departLane="11_3way_15to4way_16_0" departPos="5.10" departSpeed="0.00" departDelay="0.43" arrival="76.00" arrivalLane="11_3way_15to4way_16_0" arrivalPos="85.60" arrivalSpeed="9.80" duration="19.00" routeLength="80.50" waitingTime="3.00" waitingCount="1" stopTime="0.00" timeLoss="13.04" rerouteNo="0" devices="tripinfo_99" vType="DEFAULT_VEHTYPE" speedFactor="0.97" vaporized=""/>
    <tripinfo id="5" depart="3.00" departLane="5_3way_5to3way_10_0" departPos="5.10" departSpeed="0.00" departDelay="0.14" arrival="77.00" arrivalLane="25_4way_11to4way_12_0" arrivalPos="85.60" arrivalSpeed="12.52" duration="74.00" routeLength="275.13" waitingTime="41.00" waitingCount="1" stopTime="0.00" timeLoss="51.88" rerouteNo="0" devices="tripinfo_5" vType="DEFAULT_VEHTYPE" speedFactor="0.94" vaporized=""/>
    <tripinfo id="7" depart="4.00" departLane="29_4way_17to4way_12_0" departPos="5.10" departSpeed="0.00" departDelay="0.00" arrival="77.00" arrivalLane="1_3way_2to3way_1_0" arrivalPos="85.60" arrivalSpeed="12.16" duration="73.00" routeLength="375.13" waitingTime="35.00" waitingCount="1" stopTime="0.00" timeLoss="43.50" rerouteNo="0" devices="tripinfo_7" vType="DEFAULT_VEHTYPE" speedFactor="0.95" vaporized=""/>
    <tripinfo id="14" depart="9.00" departLane="29_4way_12to4way_17_0" departPos="5.10" departSpeed="0.00" departDelay="1.00" arrival="77.00" arrivalLane="13_4way_18to3way_19_0" arrivalPos="85.60" arrivalSpeed="12.03" duration="68.00" routeLength="275.13" waitingTime="35.00" waitingCount="1" stopTime="0.00" timeLoss="46.35" rerouteNo="0" devices="tripinfo_14" vType="DEFAULT_VEHTYPE" speedFactor="0.95" vaporized=""/>
    <tripinfo id="34" depart="21.00" departLane="3_3way_1to4way_6_0" departPos="5.10" departSpeed="0.00" departDelay="1.57" arrival="77.00" arrivalLane="35_4way_6to4way_7_0" arrivalPos="85.60" arrivalSpeed="12.23" duration="56.00" routeLength="175.13" waitingTime="33.00" waitingCount="1" stopTime="0.00" timeLoss="41.92" rerouteNo="0" devices="tripinfo_34" vType="DEFAULT_VEHTYPE" speedFactor="0.96" vaporized=""/>
    <tripinfo id="43" depart="25.00" departLane="36_4way_7to4way_8_0" departPos="5.10" departSpeed="0.00" departDelay="0.43" arrival="77.00" arrivalLane="22_4way_8to3way_3_0" arrivalPos="85.60" arrivalSpeed="12.62" duration="52.00" routeLength="175.13" waitingTime="30.00" waitingCount="1" stopTime="0.00" timeLoss="38.14" rerouteNo="0" devices="tripinfo_43" vType="DEFAULT_VEHTYPE" speedFactor="0.97" vaporized=""/>
    <tripinfo id="52" depart="30.00" departLane="20_3way_23to4way_18_0" departPos="5.10" departSpeed="0.00" departDelay="0.29" arrival="77.00" arrivalLane="33_4way_17to4way_16_0" arrivalPos="85.60" arrivalSpeed="14.17" duration="47.00" routeLength="275.13" waitingTime="15.00" waitingCount="1" stopTime="0.00" timeLoss="26.75" rerouteNo="0" devices="tripinfo_52" vType="DEFAULT_VEHTYPE" speedFactor="1.03" vaporized=""/>
    <tripinfo id="104" depart="60.00" departLane="16_3way_21to3way_22_0" departPos="5.10" departSpeed="0.00" departDelay="0.57" arrival="77.00" arrivalLane="18_3way_22to3way_23_0" arrivalPos="85.60" arrivalSpeed="12.41" duration="17.00" routeLength="180.50" waitingTime="0.00" waitingCount="0" stopTime="0.00" timeLoss="3.20" rerouteNo="0" devices="tripinfo_104" vType="DEFAULT_VEHTYPE" speedFactor="0.95" vaporized=""/>
    <tripinfo id="116" depart="67.00" departLane="22_3way_3to4way_8_0" departPos="5.10" departSpeed="0.00" departDelay="0.72" arrival="77.00" arrivalLane="22_3way_3to4way_8_0" arrivalPos="85.60" arrivalSpeed="12.45" duration="10.00" routeLength="80.50" waitingTime="0.00" waitingCount="0" stopTime="0.00" timeLoss="3.40" rerouteNo="0" devices="tripinfo_116" vType="DEFAULT_VEHTYPE" speedFactor="0.99" vaporized=""/>
    <tripinfo id="60" depart="39.00" departLane="20_3way_23to4way_18_0" departPos="5.10" departSpeed="0.00" departDelay="4.72" arrival="78.00" arrivalLane="25_4way_12to4way_11_0" arrivalPos="85.60" arrivalSpeed="15.55" duration="39.00" routeLength="375.13" waitingTime="0.00" waitingCount="0" stopTime="0.00" timeLoss="14.13" rerouteNo="0" devices="tripinfo_60" vType="DEFAULT_VEHTYPE" speedFactor="1.12" vaporized=""/>
    <tripinfo id="88" depart="51.00" departLane="27_4way_6to4way_11_0" departPos="5.10" departSpeed="0.00" departDelay="0.72" arrival="78.00" arrivalLane="28_4way_12to4way_13_0" arrivalPos="85.60" arrivalSpeed="13.91" duration="27.00" routeLength="275.13" waitingTime="0.00" waitingCount="0" stopTime="0.00" timeLoss="7.27" rerouteNo="0" devices="tripinfo_88" vType="DEFAULT_VEHTYPE" speedFactor="1.06" vaporized=""/>
    <tripinfo id="92" depart="56.00" departLane="9_4way_13to3way_14_0" departPos="5.10" departSpeed="0.00" departDelay="3.43" arrival="78.00" arrivalLane="8_3way_14to3way_9_0" arrivalPos="85.60" arrivalSpeed="15.68" duration="22.00" routeLength="175.13" waitingTime="0.00" waitingCount="0" stopTime="0.00" timeLoss="9.64" rerouteNo="0" devices="tripinfo_92" vType="DEFAULT_VEHTYPE" speedFactor="1.13" vaporized=""/>
    <tripinfo id="51" depart="30.00" departLane="33_4way_17to4way_16_0" departPos="5.10" departSpeed="0.00" departDelay="0.86" arrival="79.00" arrivalLane="11_4way_16to3way_15_0" arrivalPos="85.60" arrivalSpeed="9.35" duration="49.00" routeLength="180.50" waitingTime="24.00" waitingCount="1" stopTime="0.00" timeLoss="31.13" rerouteNo="0" devices="tripinfo_51" vType="DEFAULT_VEHTYPE" speedFactor="0.74" vaporized=""/>
    <tripinfo id="83" depart="48.00" departLane="9_3way_14to4way_13_0" departPos="5.10" departSpeed="0.00" departDelay="0.57" arrival="79.00" arrivalLane="28_4way_13to4way_12_0" arrivalPos="85.60" arrivalSpeed="12.50" duration="31.00" routeLength="180.50" waitingTime="7.00" waitingCount="1" stopTime="0.00" timeLoss="16.67" rerouteNo="0" devices="tripinfo_83" vType="DEFAULT_VEHTYPE" speedFactor="0.93" vaporized=""/>
    <tripinfo id="103" depart="59.00" departLane="15_4way_7to3way_2_0" departPos="5.10" departSpeed="0.00" departDelay="0.15" arrival="79.00" arrivalLane="1_3way_2to3way_1_0" arrivalPos="85.60" arrivalSpeed="15.02" duration="20.00" routeLength="175.13" waitingTime="0.00" waitingCount="0" stopTime="0.00" timeLoss="7.47" rerouteNo="0" devices="tripinfo_103" vType="DEFAULT_VEHTYPE" speedFactor="1.15" vaporized=""/>
    <tripinfo id="77" depart="44.00" departLane="36_4way_8to4way_7_0" departPos="5.10" departSpeed="0.00" departDelay="0.00" arrival="80.00" arrivalLane="36_4way_8to4way_7_0" arrivalPos="85.60" arrivalSpeed="10.18" duration="36.00" routeLength="80.50" waitingTime="18.00" waitingCount="1" stopTime="0.00" timeLoss="29.90" rerouteNo="0" devices="tripinfo_77" vType="DEFAULT_VEHTYPE" speedFactor="0.99" vaporized=""/>
    <tripinfo id="124" depart="71.00" departLane="23_4way_6to3way_5_0" departPos="5.10" departSpeed="0.00" departDelay="0.15" arrival="80.00" arrivalLane="23_4way_6to3way_5_0" arrivalPos="85.60" arrivalSpeed="15.33" duration="9.00" routeLength="80.50" waitingTime="0.00" waitingCount="0" stopTime="0.00" timeLoss="3.39" rerouteNo="0" devices="tripinfo_124" vType="DEFAULT_VEHTYPE" speedFactor="1.11" vaporized=""/>
    <tripinfo id="70" depart="44.00" departLane="34_4way_18to4way_17_0" departPos="5.10" departSpeed="0.00" departDelay="4.00" arrival="81.00" arrivalLane="33_4way_17to4way_16_0" arrivalPos="85.60" arrivalSpeed="9.78" duration="37.00" routeLength="180.50" waitingTime="12.00" waitingCount="1" stopTime="0.00" timeLoss="19.19" rerouteNo="0" devices="tripinfo_70" vType="DEFAULT_VEHTYPE" speedFactor="0.75" vaporized=""/>
    <tripinfo id="48" depart="28.00" departLane="31_4way_18to4way_13_0" departPos="5.10" departSpeed="0.00" departDelay="0.57" arrival="82.00" arrivalLane="36_4way_8to4way_7_0" arrivalPos="85.60" arrivalSpeed="9.97" duration="54.00" routeLength="275.13" waitingTime="16.00" waitingCount="1" stopTime="0.00" timeLoss="29.29" rerouteNo="0" devices="tripinfo_48" vType="DEFAULT_VEHTYPE" speedFactor="0.83" vaporized=""/>
    <tripinfo id="74" depart="43.00" departLane="5_3way_5to3way_10_0" departPos="5.10" departSpeed="0.00" departDelay="0.72" arrival="82.00" arrivalLane="25_4way_11to4way_12_0" arrivalPos="85.60" arrivalSpeed="10.07" duration="39.00" routeLength="275.13" waitingTime="3.00" waitingCount="1" stopTime="0.00" timeLoss="13.05" rerouteNo="0" devices="tripinfo_74" vType="DEFAULT_VEHTYPE" speedFactor="0.81" vaporized=""/>
    <tripinfo id="125" depart="72.00" departLane="20_3way_23to4way_18_0" departPos="5.10" departSpeed="0.00" departDelay="0.57" arrival="82.00" arrivalLane="20_3way_23to4way_18_0" arrivalPos="85.60" arrivalSpeed="12.98" duration="10.00" routeLength="80.50" waitingTime="0.00" waitingCount="0" stopTime="0.00" timeLoss="2.97" rerouteNo="0" devices="tripinfo_125" vType="DEFAULT_VEHTYPE" speedFactor="0.95" vaporized=""/>
    <tripinfo id="42" depart="24.00" departLane="17_4way_16to3way_21_0" departPos="5.10" departSpeed="0.00" departDelay="0.00" arrival="84.00" arrivalLane="18_3way_22to3way_23_0" arrivalPos="85.60" arrivalSpeed="12.77" duration="60.00" routeLength="275.13" waitingTime="31.00" waitingCount="1" stopTime="0.00" timeLoss="39.20" rerouteNo="0" devices="tripinfo_42" vType="DEFAULT_VEHTYPE" speedFactor="0.99" vaporized=""/>
    <tripinfo id="33" depart="19.00" departLane="27_4way_6to4way_11_0" departPos="5.10" departSpeed="0.00" departDelay="0.14" arrival="85.00" arrivalLane="34_4way_17to4way_18_0" arrivalPos="85.60" arrivalSpeed="12.80" duration="66.00" routeLength="375.13" waitingTime="24.00" waitingCount="1" stopTime="0.00" timeLoss="39.10" rerouteNo="0" devices="tripinfo_33" vType="DEFAULT_VEHTYPE" speedFactor="1.06" vaporized=""/>
    <tripinfo id="72" depart="42.00" departLane="35_4way_6to4way_7_0" departPos="5.10" departSpeed="0.00" departDelay="0.86" arrival="85.00" arrivalLane="24_4way_8to3way_9_0" arrivalPos="85.60" arrivalSpeed="14.95" duration="43.00" routeLength="280.50" waitingTime="14.00" waitingCount="1" stopTime="0.00" timeLoss="24.82" rerouteNo="0" devices="tripinfo_72" vType="DEFAULT_VEHTYPE" speedFactor="1.15" vaporized=""/>
    <tripinfo id="25" depart="15.00" departLane="7_3way_19to3way_14_0" departPos="5.10" departSpeed="0.00" departDelay="0.71" arrival="86.00" arrivalLane="25_4way_12to4way_11_0" arrivalPos="85.60" arrivalSpeed="9.40" duration="71.00" routeLength="375.13" waitingTime="29.00" waitingCount="1" stopTime="0.00" timeLoss="41.98" rerouteNo="0" devices="tripinfo_25" vType="DEFAULT_VEHTYPE" speedFactor="0.95" vaporized=""/>
    <tripinfo id="134" depart="77.00" departLane="28_4way_12to4way_13_0" departPos="5.10" departSpeed="0.00" departDelay="0.43" arrival="86.00" arrivalLane="28_4way_12to4way_13_0" arrivalPos="85.60" arrivalSpeed="13.70" duration="9.00" routeLength="80.50" waitingTime="0.00" waitingCount="0" stopTime="0.00" timeLoss="2.87" rerouteNo="0" devices="tripinfo_134" vType="DEFAULT_VEHTYPE" speedFactor="1.00" vaporized=""/>
    <tripinfo id="47" depart="27.00" departLane="13_3way_19to4way_18_0" departPos="5.10" departSpeed="0.00" departDelay="0.14" arrival="88.00" arrivalLane="33_4way_17to4way_16_0" arrivalPos="85.60" arrivalSpeed="11.95" duration="61.00" routeLength="280.50" waitingTime="29.00" waitingCount="1" stopTime="0.00" timeLoss="38.29" rerouteNo="0" devices="tripinfo_47" vType="DEFAULT_VEHTYPE" speedFactor="0.90" vaporized=""/>
    <tripinfo id="56" depart="34.00" departLane="6_3way_10to4way_11_0" departPos="5.10" departSpeed="0.00" departDelay="2.00" arrival="88.00" arrivalLane="30_4way_12to4way_7_0" arrivalPos="85.60" arrivalSpeed="13.35" duration="54.00" routeLength="275.13" waitingTime="23.00" waitingCount="1" stopTime="0.00" timeLoss="33.34" rerouteNo="0" devices="tripinfo_56" vType="DEFAULT_VEHTYPE" speedFactor="1.02" vaporized=""/>
    <tripinfo id="133" depart="79.00" departLane="9_4way_13to3way_14_0" departPos="5.10" departSpeed="0.00" departDelay="3.00" arrival="88.00" arrivalLane="9_4way_13to3way_14_0" arrivalPos="85.60" arrivalSpeed="13.55" duration="9.00" routeLength="80.50" waitingTime="0.00" waitingCount="0" stopTime="0.00" timeLoss="2.98" rerouteNo="0" devices="tripinfo_133" vType="DEFAULT_VEHTYPE" speedFactor="1.01" vaporized=""/>
    <tripinfo id="137" depart="79.00" departLane="3_3way_1to4way_6_0" departPos="5.10" departSpeed="0.00" departDelay="0.72" arrival="88.00" arrivalLane="3_3way_1to4way_6_0" arrivalPos="85.60" arrivalSpeed="15.16" duration="9.00" routeLength="80.50" waitingTime="0.00" waitingCount="0" stopTime="0.00" timeLoss="3.61" rerouteNo="0" devices="tripinfo_137" vType="DEFAULT_VEHTYPE" speedFactor="1.14" vaporized=""/>
    <tripinfo id="57" depart="33.00" departLane="26_4way_11to4way_16_0" departPos="5.10" departSpeed="0.00" departDelay="0.43" arrival="89.00" arrivalLane="34_4way_17to4way_18_0" arrivalPos="85.60" arrivalSpeed="12.57" duration="56.00" routeLength="275.13" waitingTime="20.00" waitingCount="1" stopTime="0.00" timeLoss="34.31" rerouteNo="0" devices="tripinfo_57" vType="DEFAULT_VEHTYPE" speedFactor="0.97" vaporized=""/>
    <tripinfo id="80" depart="46.00" departLane="24_3way_9to4way_8_0" departPos="5.10" departSpeed="0.00" departDelay="0.29" arrival="90.00" arrivalLane="36_4way_8to4way_7_0" arrivalPos="85.60" arrivalSpeed="10.05" duration="44.00" routeLength="180.50" waitingTime="12.00" waitingCount="1" stopTime="0.00" timeLoss="26.72" rerouteNo="0" devices="tripinfo_80" vType="DEFAULT_VEHTYPE" speedFactor="0.78" vaporized=""/>