<?xml version="1.0" encoding="UTF-8"?>

<!-- generated on 2023-07-30 06:10:57 by Eclipse SUMO sumo Version 1.12.0
<configuration xmlns:xsi="http://www.w3.org/2001/XMLSchema-instance" xsi:noNamespaceSchemaLocation="http://sumo.dlr.de/xsd/sumoConfiguration.xsd">

    <input>
        <net-file value="../../data_generation/sq.net.xml"/>
        <route-files value="../../data_generation/sq.rou.xml"/>
    </input>

    <output>
        <tripinfo-output value="tripinfo.xml"/>
        <statistic-output value="statistic.xml"/>
    </output>

    <time>
        <begin value="0"/>
        <end value="3600"/>
    </time>

    <processing>
        <time-to-teleport value="-1"/>
    </processing>

    <traci_server>
        <remote-port value="45385"/>
    </traci_server>

    <random_number>
        <seed value="1395"/>
    </random_number>

    <gui_only>
        <gui-settings-file value="../../data_generation/view_HY_0402.xml"/>
    </gui_only>

</configuration>
-->

<tripinfos xmlns:xsi="http://www.w3.org/2001/XMLSchema-instance" xsi:noNamespaceSchemaLocation="http://sumo.dlr.de/xsd/tripinfo_file.xsd">
    <tripinfo id="7" depart="2.00" departLane="34_3way_7to3way_6_0" departPos="5.10" departSpeed="0.00" departDelay="0.17" arrival="12.00" arrivalLane="34_3way_7to3way_6_0" arrivalPos="85.60" arrivalSpeed="13.16" duration="10.00" routeLength="80.50" waitingTime="0.00" waitingCount="0" stopTime="0.00" timeLoss="3.25" rerouteNo="0" devices="tripinfo_7" vType="DEFAULT_VEHTYPE" speedFactor="0.95" vaporized=""/>
    <tripinfo id="9" depart="3.00" departLane="104_4way_42to4way_41_0" departPos="5.10" departSpeed="0.00" departDelay="0.65" arrival="13.00" arrivalLane="104_4way_42to4way_41_0" arrivalPos="85.60" arrivalSpeed="12.23" duration="10.00" routeLength="80.50" waitingTime="0.00" waitingCount="0" stopTime="0.00" timeLoss="2.68" rerouteNo="0" devices="tripinfo_9" vType="DEFAULT_VEHTYPE" speedFactor="0.91" vaporized=""/>
    <tripinfo id="10" depart="3.00" departLane="130_4way_59to4way_60_0" departPos="5.10" departSpeed="0.00" departDelay="0.39" arrival="20.00" arrivalLane="132_4way_60to4way_61_0" arrivalPos="85.60" arrivalSpeed="14.11" duration="17.00" routeLength="180.50" waitingTime="0.00" waitingCount="0" stopTime="0.00" timeLoss="3.75" rerouteNo="0" devices="tripinfo_10" vType="DEFAULT_VEHTYPE" speedFactor="1.04" vaporized=""/>
    <tripinfo id="38" depart="10.00" departLane="21_4way_37to3way_36_0" departPos="5.10" departSpeed="0.00" departDelay="0.07" arrival="20.00" arrivalLane="21_4way_37to3way_36_0" arrivalPos="85.60" arrivalSpeed="13.47" duration="10.00" routeLength="80.50" waitingTime="0.00" waitingCount="0" stopTime="0.00" timeLoss="3.31" rerouteNo="0" devices="tripinfo_38" vType="DEFAULT_VEHTYPE" speedFactor="1.00" vaporized=""/>
    <tripinfo id="51" depart="14.00" departLane="88_4way_30to4way_39_0" departPos="5.10" departSpeed="0.00" departDelay="0.67" arrival="25.00" arrivalLane="88_4way_30to4way_39_0" arrivalPos="85.60" arrivalSpeed="9.57" duration="11.00" routeLength="80.50" waitingTime="0.00" waitingCount="0" stopTime="0.00" timeLoss="2.33" rerouteNo="0" devices="tripinfo_51" vType="DEFAULT_VEHTYPE" speedFactor="0.74" vaporized=""/>
    <tripinfo id="16" depart="5.00" departLane="62_4way_21to4way_12_0" departPos="5.10" departSpeed="0.00" departDelay="0.82" arrival="26.00" arrivalLane="59_4way_12to4way_11_0" arrivalPos="85.60" arrivalSpeed="11.30" duration="21.00" routeLength="175.13" waitingTime="0.00" waitingCount="0" stopTime="0.00" timeLoss="5.60" rerouteNo="0" devices="tripinfo_16" vType="DEFAULT_VEHTYPE" speedFactor="0.90" vaporized=""/>
    <tripinfo id="71" depart="19.00" departLane="6_4way_16to3way_17_0" departPos="5.10" departSpeed="0.00" departDelay="0.44" arrival="28.00" arrivalLane="6_4way_16to3way_17_0" arrivalPos="85.60" arrivalSpeed="14.52" duration="9.00" routeLength="80.50" waitingTime="0.00" waitingCount="0" stopTime="0.00" timeLoss="3.65" rerouteNo="0" devices="tripinfo_71" vType="DEFAULT_VEHTYPE" speedFactor="1.13" vaporized=""/>
    <tripinfo id="60" depart="16.00" departLane="111_4way_48to4way_47_0" departPos="5.10" departSpeed="0.00" departDelay="0.32" arrival="32.00" arrivalLane="109_4way_47to4way_46_0" arrivalPos="85.60" arrivalSpeed="14.81" duration="16.00" routeLength="180.50" waitingTime="0.00" waitingCount="0" stopTime="0.00" timeLoss="3.75" rerouteNo="0" devices="tripinfo_60" vType="DEFAULT_VEHTYPE" speedFactor="1.12" vaporized=""/>
    <tripinfo id="75" depart="20.00" departLane="93_4way_33to4way_34_0" departPos="5.10" departSpeed="0.00" departDelay="0.39" arrival="37.00" arrivalLane="19_4way_34to3way_35_0" arrivalPos="85.60" arrivalSpeed="14.58" duration="17.00" routeLength="180.50" waitingTime="0.00" waitingCount="0" stopTime="0.00" timeLoss="4.14" rerouteNo="0" devices="tripinfo_75" vType="DEFAULT_VEHTYPE" speedFactor="1.09" vaporized=""/>
    <tripinfo id="81" depart="22.00" departLane="2_3way_9to3way_1_0" departPos="5.10" departSpeed="0.00" departDelay="0.83" arrival="39.00" arrivalLane="2_3way_9to3way_1_0" arrivalPos="188.80" arrivalSpeed="13.63" duration="17.00" routeLength="183.70" waitingTime="0.00" waitingCount="0" stopTime="0.00" timeLoss="3.70" rerouteNo="0" devices="tripinfo_81" vType="DEFAULT_VEHTYPE" speedFactor="1.05" vaporized=""/>
    <tripinfo id="22" depart="6.00" departLane="56_4way_10to3way_9_0" departPos="5.10" departSpeed="0.00" departDelay="0.25" arrival="40.00" arrivalLane="14_3way_27to3way_36_0" arrivalPos="85.60" arrivalSpeed="13.89" duration="34.00" routeLength="375.13" waitingTime="0.00" waitingCount="0" stopTime="0.00" timeLoss="5.81" rerouteNo="0" devices="tripinfo_22" vType="DEFAULT_VEHTYPE" speedFactor="1.00" vaporized=""/>
    <tripinfo id="116" depart="31.00" departLane="57_4way_11to4way_10_0" departPos="5.10" departSpeed="0.00" departDelay="0.68" arrival="40.00" arrivalLane="57_4way_11to4way_10_0" arrivalPos="85.60" arrivalSpeed="12.86" duration="9.00" routeLength="80.50" waitingTime="0.00" waitingCount="0" stopTime="0.00" timeLoss="2.53" rerouteNo="0" devices="tripinfo_116" vType="DEFAULT_VEHTYPE" speedFactor="0.99" vaporized=""/>
    <tripinfo id="18" depart="5.00" departLane="102_4way_40to4way_41_0" departPos="5.10" departSpeed="0.00" departDelay="0.29" arrival="41.00" arrivalLane="95_4way_43to4way_34_0" arrivalPos="85.60" arrivalSpeed="13.22" duration="36.00" routeLength="375.13" waitingTime="0.00" waitingCount="0" stopTime="0.00" timeLoss="6.01" rerouteNo="0" devices="tripinfo_18" vType="DEFAULT_VEHTYPE" speedFactor="0.96" vaporized=""/>
    <tripinfo id="124" depart="33.00" departLane="79_4way_23to4way_32_0" departPos="5.10" departSpeed="0.00" departDelay="0.59" arrival="42.00" arrivalLane="79_4way_23to4way_32_0" arrivalPos="85.60" arrivalSpeed="14.50" duration="9.00" routeLength="80.50" waitingTime="0.00" waitingCount="0" stopTime="0.00" timeLoss="3.55" rerouteNo="0" devices="tripinfo_124" vType="DEFAULT_VEHTYPE" speedFactor="1.11" vaporized=""/>
    <tripinfo id="96" depart="26.00" departLane="45_3way_74to3way_75_0" departPos="5.10" departSpeed="0.00" departDelay="0.91" arrival="44.00" arrivalLane="47_3way_75to3way_76_0" arrivalPos="85.60" arrivalSpeed="12.63" duration="18.00" routeLength="180.50" waitingTime="0.00" waitingCount="0" stopTime="0.00" timeLoss="4.02" rerouteNo="0" devices="tripinfo_96" vType="DEFAULT_VEHTYPE" speedFactor="0.95" vaporized=""/>
    <tripinfo id="147" depart="39.00" departLane="108_4way_43to4way_52_0" departPos="5.10" departSpeed="0.00" departDelay="0.57" arrival="49.00" arrivalLane="108_4way_43to4way_52_0" arrivalPos="85.60" arrivalSpeed="13.39" duration="10.00" routeLength="80.50" waitingTime="0.00" waitingCount="0" stopTime="0.00" timeLoss="3.41" rerouteNo="0" devices="tripinfo_147" vType="DEFAULT_VEHTYPE" speedFactor="0.97" vaporized=""/>
    <tripinfo id="160" depart="42.00" departLane="103_4way_49to4way_40_0" departPos="5.10" departSpeed="0.00" departDelay="0.18" arrival="52.00" arrivalLane="103_4way_49to4way_40_0" arrivalPos="85.60" arrivalSpeed="11.31" duration="10.00" routeLength="80.50" waitingTime="0.00" waitingCount="0" stopTime="0.00" timeLoss="2.95" rerouteNo="0" devices="tripinfo_160" vType="DEFAULT_VEHTYPE" speedFactor="0.88" vaporized=""/>
    <tripinfo id="19" depart="5.00" departLane="33_4way_55to3way_54_0" departPos="5.10" departSpeed="0.00" departDelay="0.03" arrival="60.00" arrivalLane="8_3way_18to3way_9_0" arrivalPos="85.60" arrivalSpeed="12.13" duration="55.00" routeLength="580.29" waitingTime="0.00" waitingCount="0" stopTime="0.00" timeLoss="6.50" rerouteNo="0" devices="tripinfo_19" vType="DEFAULT_VEHTYPE" speedFactor="0.89" vaporized=""/>
    <tripinfo id="171" depart="45.00" departLane="17_3way_3to4way_12_0" departPos="5.10" departSpeed="0.00" departDelay="0.30" arrival="64.00" arrivalLane="61_4way_12to4way_13_0" arrivalPos="85.60" arrivalSpeed="13.12" duration="19.00" routeLength="175.13" waitingTime="0.00" waitingCount="0" stopTime="0.00" timeLoss="5.57" rerouteNo="0" devices="tripinfo_171" vType="DEFAULT_VEHTYPE" speedFactor="1.04" vaporized=""/>
    <tripinfo id="212" depart="56.00" departLane="109_4way_46to4way_47_0" departPos="5.10" departSpeed="0.00" departDelay="0.58" arrival="65.00" arrivalLane="109_4way_46to4way_47_0" arrivalPos="85.60" arrivalSpeed="13.45" duration="9.00" routeLength="80.50" waitingTime="0.00" waitingCount="0" stopTime="0.00" timeLoss="2.84" rerouteNo="0" devices="tripinfo_212" vType="DEFAULT_VEHTYPE" speedFactor="1.00" vaporized=""/>
    <tripinfo id="25" depart="7.00" departLane="36_3way_62to3way_71_0" departPos="5.10" departSpeed="0.00" departDelay="0.46" arrival="70.00" arrivalLane="51_3way_78to3way_77_0" arrivalPos="85.60" arrivalSpeed="4.32" duration="63.00" routeLength="483.70" waitingTime="17.00" waitingCount="1" stopTime="0.00" timeLoss="26.32" rerouteNo="0" devices="tripinfo_25" vType="DEFAULT_VEHTYPE" speedFactor="0.95" vaporized=""/>
    <tripinfo id="112" depart="34.00" departLane="66_4way_14to4way_23_0" departPos="5.10" departSpeed="0.00" departDelay="4.72" arrival="70.00" arrivalLane="93_4way_33to4way_34_0" arrivalPos="85.60" arrivalSpeed="12.44" duration="36.00" routeLength="375.13" waitingTime="0.00" waitingCount="0" stopTime="0.00" timeLoss="5.74" rerouteNo="0" devices="tripinfo_112" vType="DEFAULT_VEHTYPE" speedFactor="0.95" vaporized=""/>
    <tripinfo id="205" depart="54.00" departLane="134_4way_70to4way_61_0" departPos="5.10" departSpeed="0.00" departDelay="0.41" arrival="70.00" arrivalLane="134_4way_70to4way_61_0" arrivalPos="85.60" arrivalSpeed="6.13" duration="16.00" routeLength="80.50" waitingTime="1.00" waitingCount="1" stopTime="0.00" timeLoss="9.33" rerouteNo="0" devices="tripinfo_205" vType="DEFAULT_VEHTYPE" speedFactor="0.90" vaporized=""/>
    <tripinfo id="66" depart="18.00" departLane="74_4way_22to4way_21_0" departPos="5.10" departSpeed="0.00" departDelay="0.75" arrival="71.00" arrivalLane="75_4way_21to4way_30_0" arrivalPos="85.60" arrivalSpeed="5.56" duration="53.00" routeLength="175.13" waitingTime="26.00" waitingCount="1" stopTime="0.00" timeLoss="37.00" rerouteNo="0" devices="tripinfo_66" vType="DEFAULT_VEHTYPE" speedFactor="0.86" vaporized=""/>
    <tripinfo id="14" depart="4.00" departLane="97_4way_37to4way_46_0" departPos="5.10" departSpeed="0.00" departDelay="0.34" arrival="72.00" arrivalLane="122_4way_55to4way_56_0" arrivalPos="85.60" arrivalSpeed="7.23" duration="68.00" routeLength="275.13" waitingTime="36.00" waitingCount="1" stopTime="0.00" timeLoss="46.56" rerouteNo="0" devices="tripinfo_14" vType="DEFAULT_VEHTYPE" speedFactor="0.95" vaporized=""/>
    <tripinfo id="103" depart="27.00" departLane="51_3way_77to3way_78_0" departPos="5.10" departSpeed="0.00" departDelay="0.08" arrival="73.00" arrivalLane="55_3way_79to4way_70_0" arrivalPos="85.60" arrivalSpeed="7.13" duration="46.00" routeLength="275.13" waitingTime="15.00" waitingCount="1" stopTime="0.00" timeLoss="27.52" rerouteNo="0" devices="tripinfo_103" vType="DEFAULT_VEHTYPE" speedFactor="1.15" vaporized=""/>
    <tripinfo id="118" depart="31.00" departLane="19_3way_35to4way_34_0" departPos="5.10" departSpeed="0.00" departDelay="0.15" arrival="73.00" arrivalLane="94_4way_33to4way_42_0" arrivalPos="85.60" arrivalSpeed="8.07" duration="42.00" routeLength="275.13" waitingTime="9.00" waitingCount="1" stopTime="0.00" timeLoss="21.77" rerouteNo="0" devices="tripinfo_118" vType="DEFAULT_VEHTYPE" speedFactor="1.05" vaporized=""/>
    <tripinfo id="202" depart="56.00" departLane="45_3way_74to3way_75_0" departPos="5.10" departSpeed="0.00" departDelay="3.20" arrival="75.00" arrivalLane="47_3way_75to3way_76_0" arrivalPos="85.60" arrivalSpeed="12.03" duration="19.00" routeLength="180.50" waitingTime="0.00" waitingCount="0" stopTime="0.00" timeLoss="3.71" rerouteNo="0" devices="tripinfo_202" vType="DEFAULT_VEHTYPE" speedFactor="0.90" vaporized=""/>
    <tripinfo id="65" depart="17.00" departLane="88_4way_39to4way_30_0" departPos="5.10" departSpeed="0.00" departDelay="0.01" arrival="76.00" arrivalLane="75_4way_30to4way_21_0" arrivalPos="85.60" arrivalSpeed="15.63" duration="59.00" routeLength="180.50" waitingTime="38.00" waitingCount="1" stopTime="0.00" timeLoss="48.03" rerouteNo="0" devices="tripinfo_65" vType="DEFAULT_VEHTYPE" speedFactor="1.20" vaporized=""/>
    <tripinfo id="252" depart="66.00" departLane="126_4way_58to4way_57_0" departPos="5.10" departSpeed="0.00" departDelay="0.13" arrival="76.00" arrivalLane="126_4way_58to4way_57_0" arrivalPos="85.60" arrivalSpeed="13.18" duration="10.00" routeLength="80.50" waitingTime="0.00" waitingCount="0" stopTime="0.00" timeLoss="3.19" rerouteNo="0" devices="tripinfo_252" vType="DEFAULT_VEHTYPE" speedFactor="0.98" vaporized=""/>
    <tripinfo id="35" depart="10.00" departLane="23_3way_4to4way_13_0" departPos="5.10" departSpeed="0.00" departDelay="0.85" arrival="77.00" arrivalLane="63_4way_13to4way_14_0" arrivalPos="85.60" arrivalSpeed="12.16" duration="67.00" routeLength="175.13" waitingTime="46.00" waitingCount="1" stopTime="0.00" timeLoss="53.04" rerouteNo="0" devices="tripinfo_35" vType="DEFAULT_VEHTYPE" speedFactor="0.94" vaporized=""/>
    <tripinfo id="133" depart="35.00" departLane="120_4way_51to4way_60_0" departPos="5.10" departSpeed="0.00" departDelay="0.23" arrival="77.00" arrivalLane="132_4way_60to4way_61_0" arrivalPos="85.60" arrivalSpeed="13.35" duration="42.00" routeLength="175.13" waitingTime="20.00" waitingCount="1" stopTime="0.00" timeLoss="28.15" rerouteNo="0" devices="tripinfo_133" vType="DEFAULT_VEHTYPE" speedFactor="1.01" vaporized=""/>
    <tripinfo id="176" depart="47.00" departLane="54_4way_69to3way_78_0" departPos="5.10" departSpeed="0.00" departDelay="0.99" arrival="77.00" arrivalLane="53_3way_78to3way_79_0" arrivalPos="85.60" arrivalSpeed="12.53" duration="30.00" routeLength="175.13" waitingTime="8.00" waitingCount="1" stopTime="0.00" timeLoss="16.10" rerouteNo="0" devices="tripinfo_176" vType="DEFAULT_VEHTYPE" speedFactor="0.97" vaporized=""/>
    <tripinfo id="31" depart="10.00" departLane="6_3way_17to4way_16_0" departPos="5.10" departSpeed="0.00" departDelay="1.90" arrival="78.00" arrivalLane="67_4way_16to4way_15_0" arrivalPos="85.60" arrivalSpeed="15.00" duration="68.00" routeLength="180.50" waitingTime="46.00" waitingCount="1" stopTime="0.00" timeLoss="55.94" rerouteNo="0" devices="tripinfo_31" vType="DEFAULT_VEHTYPE" speedFactor="1.11" vaporized=""/>
    <tripinfo id="57" depart="17.00" departLane="115_4way_49to4way_50_0" departPos="5.10" departSpeed="0.00" departDelay="2.10" arrival="78.00" arrivalLane="117_4way_50to4way_51_0" arrivalPos="85.60" arrivalSpeed="13.31" duration="61.00" routeLength="180.50" waitingTime="39.00" waitingCount="1" stopTime="0.00" timeLoss="47.42" rerouteNo="0" devices="tripinfo_57" vType="DEFAULT_VEHTYPE" speedFactor="0.97" vaporized=""/>
    <tripinfo id="70" depart="19.00" departLane="129_4way_58to4way_67_0" departPos="5.10" departSpeed="0.00" departDelay="0.70" arrival="78.00" arrivalLane="138_4way_67to4way_68_0" arrivalPos="85.60" arrivalSpeed="9.43" duration="59.00" routeLength="175.13" waitingTime="36.00" waitingCount="1" stopTime="0.00" timeLoss="41.50" rerouteNo="0" devices="tripinfo_70" vType="DEFAULT_VEHTYPE" speedFactor="0.75" vaporized=""/>
    <tripinfo id="257" depart="68.00" departLane="3_4way_10to3way_1_0" departPos="5.10" departSpeed="0.00" departDelay="0.82" arrival="78.00" arrivalLane="3_4way_10to3way_1_0" arrivalPos="85.60" arrivalSpeed="10.48" duration="10.00" routeLength="80.50" waitingTime="0.00" waitingCount="0" stopTime="0.00" timeLoss="3.05" rerouteNo="0" devices="tripinfo_257" vType="DEFAULT_VEHTYPE" speedFactor="0.83" vaporized=""/>
    <tripinfo id="136" depart="36.00" departLane="130_4way_59to4way_60_0" departPos="5.10" departSpeed="0.00" departDelay="0.45" arrival="79.00" arrivalLane="95_4way_43to4way_34_0" arrivalPos="85.60" arrivalSpeed="12.84" duration="43.00" routeLength="475.13" waitingTime="0.00" waitingCount="0" stopTime="0.00" timeLoss="8.09" rerouteNo="0" devices="tripinfo_136" vType="DEFAULT_VEHTYPE" speedFactor="1.01" vaporized=""/>
    <tripinfo id="266" depart="70.00" departLane="101_4way_39to4way_48_0" departPos="5.10" departSpeed="0.00" departDelay="0.47" arrival="79.00" arrivalLane="101_4way_39to4way_48_0" arrivalPos="85.60" arrivalSpeed="12.32" duration="9.00" routeLength="80.50" waitingTime="0.00" waitingCount="0" stopTime="0.00" timeLoss="3.04" rerouteNo="0" devices="tripinfo_266" vType="DEFAULT_VEHTYPE" speedFactor="0.97" vaporized=""/>
    <tripinfo id="1" depart="1.00" departLane="136_4way_65to4way_66_0" departPos="5.10" departSpeed="0.00" departDelay="0.74" arrival="84.00" arrivalLane="114_4way_57to4way_48_0" arrivalPos="85.60" arrivalSpeed="13.40" duration="83.00" routeLength="275.13" waitingTime="55.00" waitingCount="1" stopTime="0.00" timeLoss="62.76" rerouteNo="0" devices="tripinfo_1" vType="DEFAULT_VEHTYPE" speedFactor="1.04" vaporized=""/>
    <tripinfo id="110" depart="29.00" departLane="108_4way_43to4way_52_0" departPos="5.10" departSpeed="0.00" departDelay="0.25" arrival="84.00" arrivalLane="55_4way_70to3way_79_0" arrivalPos="85.60" arrivalSpeed="14.24" duration="55.00" routeLength="380.50" waitingTime="18.00" waitingCount="1" stopTime="0.00" timeLoss="28.66" rerouteNo="0" devices="tripinfo_110" vType="DEFAULT_VEHTYPE" speedFactor="1.05" vaporized=""/>
    <tripinfo id="13" depart="4.00" departLane="95_4way_34to4way_43_0" departPos="5.10" departSpeed="0.00" departDelay="0.60" arrival="86.00" arrivalLane="31_4way_52to3way_53_0" arrivalPos="85.60" arrivalSpeed="12.61" duration="82.00" routeLength="275.13" waitingTime="50.00" waitingCount="1" stopTime="0.00" timeLoss="61.26" rerouteNo="0" devices="tripinfo_13" vType="DEFAULT_VEHTYPE" speedFactor="0.98" vaporized=""/>
    <tripinfo id="95" depart="25.00" departLane="85_4way_29to4way_30_0" departPos="5.10" departSpeed="0.00" departDelay="0.17" arrival="86.00" arrivalLane="66_4way_23to4way_14_0" arrivalPos="85.60" arrivalSpeed="11.38" duration="61.00" routeLength="475.13" waitingTime="12.00" waitingCount="1" stopTime="0.00" timeLoss="20.95" rerouteNo="0" devices="tripinfo_95" vType="DEFAULT_VEHTYPE" speedFactor="0.88" vaporized=""/>
    <tripinfo id="126" depart="33.00" departLane="88_4way_39to4way_30_0" departPos="5.10" departSpeed="0.00" departDelay="0.06" arrival="86.00" arrivalLane="62_4way_21to4way_12_0" arrivalPos="85.60" arrivalSpeed="12.89" duration="53.00" routeLength="280.50" waitingTime="23.00" waitingCount="1" stopTime="0.00" timeLoss="32.83" rerouteNo="0" devices="tripinfo_126" vType="DEFAULT_VEHTYPE" speedFactor="1.01" vaporized=""/>
    <tripinfo id="288" depart="76.00" departLane="22_3way_5to3way_4_0" departPos="5.10" departSpeed="0.00" departDelay="0.72" arrival="86.00" arrivalLane="22_3way_5to3way_4_0" arrivalPos="85.60" arrivalSpeed="11.08" duration="10.00" routeLength="80.50" waitingTime="0.00" waitingCount="0" stopTime="0.00" timeLoss="2.58" rerouteNo="0" devices="tripinfo_288" vType="DEFAULT_VEHTYPE" speedFactor="0.82" vaporized=""/>
    <tripinfo id="100" depart="27.00" departLane="28_3way_6to3way_5_0" departPos="5.10" departSpeed="0.00" departDelay="0.86" arrival="89.00" arrivalLane="10_3way_3to3way_2_0" arrivalPos="85.60" arrivalSpeed="16.01" duration="62.00" routeLength="380.50" waitingTime="24.00" waitingCount="1" stopTime="0.00" timeLoss="38.23" rerouteNo="0" devices="tripinfo_100" vType="DEFAULT_VEHTYPE" speedFactor="1.20" vaporized=""/>
    <tripinfo id="113" depart="30.00" departLane="49_3way_77to3way_76_0" departPos="5.10" departSpeed="0.00" departDelay="0.46" arrival="89.00" arrivalLane="45_3way_75to3way_74_0" arrivalPos="85.60" arrivalSpeed="15.16" duration="59.00" routeLength="280.50" waitingTime="25.00" waitingCount="1" stopTime="0.00" timeLoss="39.74" rerouteNo="0" devices="tripinfo_113" vType="DEFAULT_VEHTYPE" speedFactor="1.10" vaporized=""/>
    <tripinfo id="167" depart="44.00" departLane="16_3way_4to3way_3_0" departPos="5.10" departSpeed="0.00" departDelay="0.35" arrival="89.00" arrivalLane="11_3way_2to4way_11_0" arrivalPos="85.60" arrivalSpeed="10.64" duration="45.00" routeLength="275.13" waitingTime="10.00" waitingCount="1" stopTime="0.00" timeLoss="20.12" rerouteNo="0" devices="tripinfo_167" vType="DEFAULT_VEHTYPE" speedFactor="0.85" vaporized=""/>
    <tripinfo id="28" depart="8.00" departLane="12_3way_26to3way_35_0" departPos="5.10" departSpeed="0.00" departDelay="0.68" arrival="91.00" arrivalLane="30_3way_53to3way_62_0" arrivalPos="85.60" arrivalSpeed="13.56" duration="83.00" routeLength="380.50" waitingTime="47.00" waitingCount="1" stopTime="0.00" timeLoss="56.23" rerouteNo="0" devices="tripinfo_28" vType="DEFAULT_VEHTYPE" speedFactor="1.03" vaporized=""/>
    <tripinfo id="271" depart="71.00" departLane="122_4way_56to4way_55_0" departPos="5.10" departSpeed="0.00" departDelay="0.16" arrival="91.00" arrivalLane="123_4way_55to4way_64_0" arrivalPos="85.60" arrivalSpeed="12.24" duration="20.00" routeLength="175.13" waitingTime="0.00" waitingCount="0" stopTime="0.00" timeLoss="4.67" rerouteNo="0" devices="tripinfo_271" vType="DEFAULT_VEHTYPE" speedFactor="0.90" vaporized=""/>
    <tripinfo id="311" depart="82.00" departLane="122_4way_56to4way_55_0" departPos="5.10" departSpeed="0.00" departDelay="0.70" arrival="91.00" arrivalLane="122_4way_56to4way_55_0" arrivalPos="85.60" arrivalSpeed="13.96" duration="9.00" routeLength="80.50" waitingTime="0.00" waitingCount="0" stopTime="0.00" timeLoss="2.74" rerouteNo="0" devices="tripinfo_311" vType="DEFAULT_VEHTYPE" speedFactor="1.04" vaporized=""/>
    <tripinfo id="243" depart="64.00" departLane="83_4way_28to4way_29_0" departPos="5.10" departSpeed="0.00" departDelay="0.48" arrival="92.00" arrivalLane="60_4way_20to4way_11_0" arrivalPos="85.60" arrivalSpeed="11.86" duration="28.00" routeLength="275.13" waitingTime="0.00" waitingCount="0" stopTime="0.00" timeLoss="6.06" rerouteNo="0" devices="tripinfo_243" vType="DEFAULT_VEHTYPE" speedFactor="0.94" vaporized=""/>
    <tripinfo id="313" depart="82.00" departLane="12_3way_26to3way_35_0" departPos="5.10" departSpeed="0.00" departDelay="0.18" arrival="92.00" arrivalLane="12_3way_26to3way_35_0" arrivalPos="85.60" arrivalSpeed="11.35" duration="10.00" routeLength="80.50" waitingTime="0.00" waitingCount="0" stopTime="0.00" timeLoss="3.01" rerouteNo="0" devices="tripinfo_313" vType="DEFAULT_VEHTYPE" speedFactor="0.90" vaporized=""/>
    <tripinfo id="105" depart="28.00" departLane="79_4way_32to4way_23_0" departPos="5.10" departSpeed="0.00" departDelay="0.55" arrival="94.00" arrivalLane="10_3way_3to3way_2_0" arrivalPos="85.60" arrivalSpeed="12.57" duration="66.00" routeLength="575.13" waitingTime="10.00" waitingCount="1" stopTime="0.00" timeLoss="21.49" rerouteNo="0" devices="tripinfo_105" vType="DEFAULT_VEHTYPE" speedFactor="0.95" vaporized=""/>
    <tripinfo id="0" depart="0.00" departLane="129_4way_67to4way_58_0" departPos="5.10" departSpeed="0.00" departDelay="0.00" arrival="95.00" arrivalLane="61_4way_13to4way_12_0" arrivalPos="85.60" arrivalSpeed="13.34" duration="95.00" routeLength="675.13" waitingTime="33.00" waitingCount="1" stopTime="0.00" timeLoss="45.38" rerouteNo="0" devices="tripinfo_0" vType="DEFAULT_VEHTYPE" speedFactor="1.00" vaporized=""/>
    <tripinfo id="315" depart="87.00" departLane="93_4way_34to4way_33_0" departPos="5.10" departSpeed="0.00" departDelay="4.66" arrival="96.00" arrivalLane="93_4way_34to4way_33_0" arrivalPos="85.60" arrivalSpeed="11.83" duration="9.00" routeLength="80.50" waitingTime="0.00" waitingCount="0" stopTime="0.00" timeLoss="2.61" rerouteNo="0" devices="tripinfo_315" vType="DEFAULT_VEHTYPE" speedFactor="0.93" vaporized=""/>
    <tripinfo id="155" depart="41.00" departLane="59_4way_12to4way_11_0" departPos="5.10" departSpeed="0.00" departDelay="0.48" arrival="98.00" arrivalLane="97_4way_37to4way_46_0" arrivalPos="85.60" arrivalSpeed="12.69" duration="57.00" routeLength="575.13" waitingTime="0.00" waitingCount="0" stopTime="0.00" timeLoss="11.63" rerouteNo="0" devices="tripinfo_155" vType="DEFAULT_VEHTYPE" speedFactor="0.94" vaporized=""/>
    <tripinfo id="327" depart="89.00" departLane="84_4way_28to4way_37_0" departPos="5.10" departSpeed="0.00" departDelay="3.52" arrival="98.00" arrivalLane="84_4way_28to4way_37_0" arrivalPos="85.60" arrivalSpeed="12.08" duration="9.00" routeLength="80.50" waitingTime="0.00" waitingCount="0" stopTime="0.00" timeLoss="2.86" rerouteNo="0" devices="tripinfo_327" vType="DEFAULT_VEHTYPE" speedFactor="0.95" vaporized=""/>
    <tripinfo id="119" depart="32.00" departLane="25_3way_44to4way_43_0" departPos="5.10" departSpeed="0.00" departDelay="0.89" arrival="100.00" arrivalLane="99_4way_38to4way_47_0" arrivalPos="85.60" arrivalSpeed="11.37" duration="68.00" routeLength="675.13" waitingTime="1.00" waitingCount="1" stopTime="0.00" timeLoss="13.26" rerouteNo="0" devices="tripinfo_119" vType="DEFAULT_VEHTYPE" speedFactor="0.90" vaporized=""/>
    <tripinfo id="260" depart="69.00" departLane="8_3way_18to3way_9_0" departPos="5.10" departSpeed="0.00" departDelay="1.04" arrival="100.00" arrivalLane="1_3way_1to3way_2_0" arrivalPos="85.60" arrivalSpeed="14.34" duration="31.00" routeLength="383.70" waitingTime="0.00" waitingCount="0" stopTime="0.00" timeLoss="6.19" rerouteNo="0" devices="tripinfo_260" vType="DEFAULT_VEHTYPE" speedFactor="1.12" vaporized=""/>
    <tripinfo id="132" depart="35.00" departLane="85_4way_29to4way_30_0" departPos="5.10" departSpeed="0.00" departDelay="0.49" arrival="101.00" arrivalLane="29_4way_14to3way_5_0" arrivalPos="85.60" arrivalSpeed="11.61" duration="66.00" routeLength="575.13" waitingTime="3.00" waitingCount="1" stopTime="0.00" timeLoss="15.98" rerouteNo="0" devices="tripinfo_132" vType="DEFAULT_VEHTYPE" speedFactor="0.86" vaporized=""/>
    <tripinfo id="94" depart="25.00" departLane="95_4way_34to4way_43_0" departPos="5.10" departSpeed="0.00" departDelay="0.43" arrival="102.00" arrivalLane="55_4way_70to3way_79_0" arrivalPos="85.60" arrivalSpeed="14.77" duration="77.00" routeLength="480.50" waitingTime="31.00" waitingCount="1" stopTime="0.00" timeLoss="44.15" rerouteNo="0" devices="tripinfo_94" vType="DEFAULT_VEHTYPE" speedFactor="1.08" vaporized=""/>
    <tripinfo id="352" depart="93.00" departLane="122_4way_56to4way_55_0" departPos="5.10" departSpeed="0.00" departDelay="0.99" arrival="103.00" arrivalLane="122_4way_56to4way_55_0" arrivalPos="85.60" arrivalSpeed="14.89" duration="10.00" routeLength="80.50" waitingTime="0.00" waitingCount="0" stopTime="0.00" timeLoss="4.14" rerouteNo="0" devices="tripinfo_352" vType="DEFAULT_VEHTYPE" speedFactor="1.10" vaporized=""/>
    <tripinfo id="135" depart="36.00" departLane="106_4way_43to4way_42_0" departPos="5.10" departSpeed="0.00" departDelay="0.71" arrival="107.00" arrivalLane="49_3way_77to3way_76_0" arrivalPos="85.60" arrivalSpeed="14.35" duration="71.00" routeLength="674.92" waitingTime="10.00" waitingCount="1" stopTime="0.00" timeLoss="24.86" rerouteNo="0" devices="tripinfo_135" vType="DEFAULT_VEHTYPE" speedFactor="1.09" vaporized=""/>
    <tripinfo id="372" depart="99.00" departLane="3_3way_1to4way_10_0" departPos="5.10" departSpeed="0.00" departDelay="1.76" arrival="108.00" arrivalLane="3_3way_1to4way_10_0" arrivalPos="85.60" arrivalSpeed="12.63" duration="9.00" routeLength="80.50" waitingTime="0.00" waitingCount="0" stopTime="0.00" timeLoss="2.94" rerouteNo="0" devices="tripinfo_372" vType="DEFAULT_VEHTYPE" speedFactor="0.96" vaporized=""/>
    <tripinfo id="330" depart="87.00" departLane="110_4way_55to4way_46_0" departPos="5.10" departSpeed="0.00" departDelay="0.74" arrival="110.00" arrivalLane="84_4way_37to4way_28_0" arrivalPos="85.60" arrivalSpeed="14.14" duration="23.00" routeLength="280.50" waitingTime="0.00" waitingCount="0" stopTime="0.00" timeLoss="3.81" rerouteNo="0" devices="tripinfo_330" vType="DEFAULT_VEHTYPE" speedFactor="1.08" vaporized=""/>
    <tripinfo id="336" depart="88.00" departLane="29_4way_14to3way_5_0" departPos="5.10" departSpeed="0.00" departDelay="0.17" arrival="114.00" arrivalLane="16_3way_4to3way_3_0" arrivalPos="85.60" arrivalSpeed="13.59" duration="26.00" routeLength="275.13" waitingTime="0.00" waitingCount="0" stopTime="0.00" timeLoss="5.77" rerouteNo="0" devices="tripinfo_336" vType="DEFAULT_VEHTYPE" speedFactor="1.03" vaporized=""/>
    <tripinfo id="361" depart="95.00" departLane="100_4way_40to4way_39_0" departPos="5.10" departSpeed="0.00" departDelay="0.63" arrival="114.00" arrivalLane="98_4way_39to4way_38_0" arrivalPos="85.60" arrivalSpeed="11.66" duration="19.00" routeLength="180.50" waitingTime="0.00" waitingCount="0" stopTime="0.00" timeLoss="3.85" rerouteNo="0" devices="tripinfo_361" vType="DEFAULT_VEHTYPE" speedFactor="0.87" vaporized=""/>