<?xml version="1.0" encoding="UTF-8"?>

<!-- generated on 2023-07-30 12:44:47 by Eclipse SUMO sumo Version 1.12.0
<configuration xmlns:xsi="http://www.w3.org/2001/XMLSchema-instance" xsi:noNamespaceSchemaLocation="http://sumo.dlr.de/xsd/sumoConfiguration.xsd">

    <input>
        <net-file value="../../data_generation/sq.net.xml"/>
        <route-files value="../../data_generation/sq.rou.xml"/>
    </input>

    <output>
        <tripinfo-output value="tripinfo.xml"/>
        <statistic-output value="statistic.xml"/>
    </output>

    <time>
        <begin value="0"/>
        <end value="3600"/>
    </time>

    <processing>
        <time-to-teleport value="-1"/>
    </processing>

    <traci_server>
        <remote-port value="47211"/>
    </traci_server>

    <random_number>
        <seed value="1395"/>
    </random_number>

    <gui_only>
        <gui-settings-file value="../../data_generation/view_HY_0402.xml"/>
    </gui_only>

</configuration>
-->

<tripinfos xmlns:xsi="http://www.w3.org/2001/XMLSchema-instance" xsi:noNamespaceSchemaLocation="http://sumo.dlr.de/xsd/tripinfo_file.xsd">
    <tripinfo id="7" depart="2.00" departLane="34_3way_7to3way_6_0" departPos="5.10" departSpeed="0.00" departDelay="0.36" arrival="12.00" arrivalLane="34_3way_7to3way_6_0" arrivalPos="85.60" arrivalSpeed="13.16" duration="10.00" routeLength="80.50" waitingTime="0.00" waitingCount="0" stopTime="0.00" timeLoss="3.25" rerouteNo="0" devices="tripinfo_7" vType="DEFAULT_VEHTYPE" speedFactor="0.95" vaporized=""/>
    <tripinfo id="9" depart="3.00" departLane="104_4way_42to4way_41_0" departPos="5.10" departSpeed="0.00" departDelay="0.89" arrival="13.00" arrivalLane="104_4way_42to4way_41_0" arrivalPos="85.60" arrivalSpeed="12.23" duration="10.00" routeLength="80.50" waitingTime="0.00" waitingCount="0" stopTime="0.00" timeLoss="2.68" rerouteNo="0" devices="tripinfo_9" vType="DEFAULT_VEHTYPE" speedFactor="0.91" vaporized=""/>
    <tripinfo id="38" depart="9.00" departLane="21_4way_37to3way_36_0" departPos="5.10" departSpeed="0.00" departDelay="0.11" arrival="19.00" arrivalLane="21_4way_37to3way_36_0" arrivalPos="85.60" arrivalSpeed="13.47" duration="10.00" routeLength="80.50" waitingTime="0.00" waitingCount="0" stopTime="0.00" timeLoss="3.31" rerouteNo="0" devices="tripinfo_38" vType="DEFAULT_VEHTYPE" speedFactor="1.00" vaporized=""/>
    <tripinfo id="51" depart="12.00" departLane="88_4way_30to4way_39_0" departPos="5.10" departSpeed="0.00" departDelay="0.07" arrival="23.00" arrivalLane="88_4way_30to4way_39_0" arrivalPos="85.60" arrivalSpeed="9.57" duration="11.00" routeLength="80.50" waitingTime="0.00" waitingCount="0" stopTime="0.00" timeLoss="2.33" rerouteNo="0" devices="tripinfo_51" vType="DEFAULT_VEHTYPE" speedFactor="0.74" vaporized=""/>
    <tripinfo id="16" depart="4.00" departLane="62_4way_21to4way_12_0" departPos="5.10" departSpeed="0.00" departDelay="0.26" arrival="24.00" arrivalLane="59_4way_12to4way_11_0" arrivalPos="85.60" arrivalSpeed="11.52" duration="20.00" routeLength="175.13" waitingTime="0.00" waitingCount="0" stopTime="0.00" timeLoss="5.41" rerouteNo="0" devices="tripinfo_16" vType="DEFAULT_VEHTYPE" speedFactor="0.90" vaporized=""/>
    <tripinfo id="71" depart="17.00" departLane="6_4way_16to3way_17_0" departPos="5.10" departSpeed="0.00" departDelay="0.39" arrival="26.00" arrivalLane="6_4way_16to3way_17_0" arrivalPos="85.60" arrivalSpeed="14.47" duration="9.00" routeLength="80.50" waitingTime="0.00" waitingCount="0" stopTime="0.00" timeLoss="3.59" rerouteNo="0" devices="tripinfo_71" vType="DEFAULT_VEHTYPE" speedFactor="1.13" vaporized=""/>
    <tripinfo id="35" depart="9.00" departLane="23_3way_4to4way_13_0" departPos="5.10" departSpeed="0.00" departDelay="0.81" arrival="28.00" arrivalLane="63_4way_13to4way_14_0" arrivalPos="85.60" arrivalSpeed="12.60" duration="19.00" routeLength="175.13" waitingTime="0.00" waitingCount="0" stopTime="0.00" timeLoss="4.53" rerouteNo="0" devices="tripinfo_35" vType="DEFAULT_VEHTYPE" speedFactor="0.94" vaporized=""/>
    <tripinfo id="13" depart="4.00" departLane="95_4way_34to4way_43_0" departPos="5.10" departSpeed="0.00" departDelay="0.96" arrival="31.00" arrivalLane="31_4way_52to3way_53_0" arrivalPos="85.60" arrivalSpeed="13.42" duration="27.00" routeLength="275.13" waitingTime="0.00" waitingCount="0" stopTime="0.00" timeLoss="5.38" rerouteNo="0" devices="tripinfo_13" vType="DEFAULT_VEHTYPE" speedFactor="0.98" vaporized=""/>
    <tripinfo id="65" depart="16.00" departLane="88_4way_39to4way_30_0" departPos="5.10" departSpeed="0.00" departDelay="0.80" arrival="32.00" arrivalLane="75_4way_30to4way_21_0" arrivalPos="85.60" arrivalSpeed="15.75" duration="16.00" routeLength="180.50" waitingTime="0.00" waitingCount="0" stopTime="0.00" timeLoss="4.26" rerouteNo="0" devices="tripinfo_65" vType="DEFAULT_VEHTYPE" speedFactor="1.20" vaporized=""/>
    <tripinfo id="81" depart="19.00" departLane="2_3way_9to3way_1_0" departPos="5.10" departSpeed="0.00" departDelay="0.05" arrival="36.00" arrivalLane="2_3way_9to3way_1_0" arrivalPos="188.80" arrivalSpeed="13.50" duration="17.00" routeLength="183.70" waitingTime="0.00" waitingCount="0" stopTime="0.00" timeLoss="3.87" rerouteNo="0" devices="tripinfo_81" vType="DEFAULT_VEHTYPE" speedFactor="1.05" vaporized=""/>
    <tripinfo id="28" depart="7.00" departLane="12_3way_26to3way_35_0" departPos="5.10" departSpeed="0.00" departDelay="0.45" arrival="38.00" arrivalLane="30_3way_53to3way_62_0" arrivalPos="85.60" arrivalSpeed="14.19" duration="31.00" routeLength="380.50" waitingTime="0.00" waitingCount="0" stopTime="0.00" timeLoss="4.24" rerouteNo="0" devices="tripinfo_28" vType="DEFAULT_VEHTYPE" speedFactor="1.03" vaporized=""/>
    <tripinfo id="124" depart="29.00" departLane="79_4way_23to4way_32_0" departPos="5.10" departSpeed="0.00" departDelay="0.00" arrival="38.00" arrivalLane="79_4way_23to4way_32_0" arrivalPos="85.60" arrivalSpeed="15.38" duration="9.00" routeLength="80.50" waitingTime="0.00" waitingCount="0" stopTime="0.00" timeLoss="3.35" rerouteNo="0" devices="tripinfo_124" vType="DEFAULT_VEHTYPE" speedFactor="1.11" vaporized=""/>
    <tripinfo id="116" depart="30.00" departLane="57_4way_11to4way_10_0" departPos="5.10" departSpeed="0.00" departDelay="2.87" arrival="39.00" arrivalLane="57_4way_11to4way_10_0" arrivalPos="85.60" arrivalSpeed="13.18" duration="9.00" routeLength="80.50" waitingTime="0.00" waitingCount="0" stopTime="0.00" timeLoss="3.07" rerouteNo="0" devices="tripinfo_116" vType="DEFAULT_VEHTYPE" speedFactor="0.99" vaporized=""/>
    <tripinfo id="96" depart="25.00" departLane="45_3way_74to3way_75_0" departPos="5.10" departSpeed="0.00" departDelay="2.55" arrival="44.00" arrivalLane="47_3way_75to3way_76_0" arrivalPos="85.60" arrivalSpeed="7.32" duration="19.00" routeLength="180.50" waitingTime="0.00" waitingCount="0" stopTime="0.00" timeLoss="5.22" rerouteNo="0" devices="tripinfo_96" vType="DEFAULT_VEHTYPE" speedFactor="0.95" vaporized=""/>
    <tripinfo id="147" depart="35.00" departLane="108_4way_43to4way_52_0" departPos="5.10" departSpeed="0.00" departDelay="0.62" arrival="45.00" arrivalLane="108_4way_43to4way_52_0" arrivalPos="85.60" arrivalSpeed="13.23" duration="10.00" routeLength="80.50" waitingTime="0.00" waitingCount="0" stopTime="0.00" timeLoss="3.55" rerouteNo="0" devices="tripinfo_147" vType="DEFAULT_VEHTYPE" speedFactor="0.97" vaporized=""/>
    <tripinfo id="25" depart="6.00" departLane="36_3way_62to3way_71_0" departPos="5.10" departSpeed="0.00" departDelay="0.15" arrival="48.00" arrivalLane="51_3way_78to3way_77_0" arrivalPos="85.60" arrivalSpeed="12.28" duration="42.00" routeLength="483.70" waitingTime="0.00" waitingCount="0" stopTime="0.00" timeLoss="4.74" rerouteNo="0" devices="tripinfo_25" vType="DEFAULT_VEHTYPE" speedFactor="0.95" vaporized=""/>
    <tripinfo id="85" depart="20.00" departLane="49_3way_76to3way_77_0" departPos="5.10" departSpeed="0.00" departDelay="0.12" arrival="48.00" arrivalLane="131_4way_68to4way_59_0" arrivalPos="85.60" arrivalSpeed="15.08" duration="28.00" routeLength="275.13" waitingTime="0.00" waitingCount="0" stopTime="0.00" timeLoss="9.72" rerouteNo="0" devices="tripinfo_85" vType="DEFAULT_VEHTYPE" speedFactor="1.12" vaporized=""/>
    <tripinfo id="160" depart="38.00" departLane="103_4way_49to4way_40_0" departPos="5.10" departSpeed="0.00" departDelay="0.58" arrival="48.00" arrivalLane="103_4way_49to4way_40_0" arrivalPos="85.60" arrivalSpeed="11.43" duration="10.00" routeLength="80.50" waitingTime="0.00" waitingCount="0" stopTime="0.00" timeLoss="3.37" rerouteNo="0" devices="tripinfo_160" vType="DEFAULT_VEHTYPE" speedFactor="0.88" vaporized=""/>
    <tripinfo id="103" depart="25.00" departLane="51_3way_77to3way_78_0" departPos="5.10" departSpeed="0.00" departDelay="0.91" arrival="50.00" arrivalLane="55_3way_79to4way_70_0" arrivalPos="85.60" arrivalSpeed="14.86" duration="25.00" routeLength="275.13" waitingTime="0.00" waitingCount="0" stopTime="0.00" timeLoss="6.63" rerouteNo="0" devices="tripinfo_103" vType="DEFAULT_VEHTYPE" speedFactor="1.15" vaporized=""/>
    <tripinfo id="46" depart="11.00" departLane="11_3way_2to4way_11_0" departPos="5.10" departSpeed="0.00" departDelay="0.24" arrival="51.00" arrivalLane="98_4way_38to4way_39_0" arrivalPos="85.60" arrivalSpeed="13.67" duration="40.00" routeLength="475.13" waitingTime="0.00" waitingCount="0" stopTime="0.00" timeLoss="6.36" rerouteNo="0" devices="tripinfo_46" vType="DEFAULT_VEHTYPE" speedFactor="1.04" vaporized=""/>
    <tripinfo id="100" depart="24.00" departLane="28_3way_6to3way_5_0" departPos="5.10" departSpeed="0.00" departDelay="0.61" arrival="53.00" arrivalLane="10_3way_3to3way_2_0" arrivalPos="85.60" arrivalSpeed="14.83" duration="29.00" routeLength="380.50" waitingTime="0.00" waitingCount="0" stopTime="0.00" timeLoss="5.66" rerouteNo="0" devices="tripinfo_100" vType="DEFAULT_VEHTYPE" speedFactor="1.20" vaporized=""/>
    <tripinfo id="113" depart="29.00" departLane="49_3way_77to3way_76_0" departPos="5.10" departSpeed="0.00" departDelay="2.57" arrival="53.00" arrivalLane="45_3way_75to3way_74_0" arrivalPos="85.60" arrivalSpeed="15.06" duration="24.00" routeLength="280.50" waitingTime="0.00" waitingCount="0" stopTime="0.00" timeLoss="4.61" rerouteNo="0" devices="tripinfo_113" vType="DEFAULT_VEHTYPE" speedFactor="1.10" vaporized=""/>
    <tripinfo id="133" depart="33.00" departLane="120_4way_51to4way_60_0" departPos="5.10" departSpeed="0.00" departDelay="1.89" arrival="53.00" arrivalLane="132_4way_60to4way_61_0" arrivalPos="85.60" arrivalSpeed="13.69" duration="20.00" routeLength="175.13" waitingTime="0.00" waitingCount="0" stopTime="0.00" timeLoss="6.22" rerouteNo="0" devices="tripinfo_133" vType="DEFAULT_VEHTYPE" speedFactor="1.01" vaporized=""/>
    <tripinfo id="126" depart="30.00" departLane="88_4way_39to4way_30_0" departPos="5.10" departSpeed="0.00" departDelay="0.53" arrival="55.00" arrivalLane="62_4way_21to4way_12_0" arrivalPos="85.60" arrivalSpeed="13.29" duration="25.00" routeLength="280.50" waitingTime="0.00" waitingCount="0" stopTime="0.00" timeLoss="4.07" rerouteNo="0" devices="tripinfo_126" vType="DEFAULT_VEHTYPE" speedFactor="1.01" vaporized=""/>
    <tripinfo id="110" depart="26.00" departLane="108_4way_43to4way_52_0" departPos="5.10" departSpeed="0.00" departDelay="0.27" arrival="57.00" arrivalLane="55_4way_70to3way_79_0" arrivalPos="85.60" arrivalSpeed="14.36" duration="31.00" routeLength="380.50" waitingTime="0.00" waitingCount="0" stopTime="0.00" timeLoss="4.32" rerouteNo="0" devices="tripinfo_110" vType="DEFAULT_VEHTYPE" speedFactor="1.05" vaporized=""/>
    <tripinfo id="130" depart="31.00" departLane="105_4way_50to4way_41_0" departPos="5.10" departSpeed="0.00" departDelay="0.59" arrival="57.00" arrivalLane="89_4way_32to4way_31_0" arrivalPos="85.60" arrivalSpeed="13.33" duration="26.00" routeLength="275.13" waitingTime="0.00" waitingCount="0" stopTime="0.00" timeLoss="5.02" rerouteNo="0" devices="tripinfo_130" vType="DEFAULT_VEHTYPE" speedFactor="0.98" vaporized=""/>
    <tripinfo id="20" depart="5.00" departLane="22_3way_5to3way_4_0" departPos="5.10" departSpeed="0.00" departDelay="0.32" arrival="59.00" arrivalLane="103_4way_40to4way_49_0" arrivalPos="85.60" arrivalSpeed="11.37" duration="54.00" routeLength="575.13" waitingTime="0.00" waitingCount="0" stopTime="0.00" timeLoss="6.86" rerouteNo="0" devices="tripinfo_20" vType="DEFAULT_VEHTYPE" speedFactor="0.89" vaporized=""/>
    <tripinfo id="171" depart="40.00" departLane="17_3way_3to4way_12_0" departPos="5.10" departSpeed="0.00" departDelay="0.00" arrival="59.00" arrivalLane="61_4way_12to4way_13_0" arrivalPos="85.60" arrivalSpeed="13.34" duration="19.00" routeLength="175.13" waitingTime="0.00" waitingCount="0" stopTime="0.00" timeLoss="6.27" rerouteNo="0" devices="tripinfo_171" vType="DEFAULT_VEHTYPE" speedFactor="1.04" vaporized=""/>
    <tripinfo id="94" depart="22.00" departLane="95_4way_34to4way_43_0" departPos="5.10" departSpeed="0.00" departDelay="0.01" arrival="60.00" arrivalLane="55_4way_70to3way_79_0" arrivalPos="85.60" arrivalSpeed="14.53" duration="38.00" routeLength="480.50" waitingTime="0.00" waitingCount="0" stopTime="0.00" timeLoss="5.56" rerouteNo="0" devices="tripinfo_94" vType="DEFAULT_VEHTYPE" speedFactor="1.08" vaporized=""/>
    <tripinfo id="205" depart="50.00" departLane="134_4way_70to4way_61_0" departPos="5.10" departSpeed="0.00" departDelay="2.05" arrival="60.00" arrivalLane="134_4way_70to4way_61_0" arrivalPos="85.60" arrivalSpeed="12.47" duration="10.00" routeLength="80.50" waitingTime="0.00" waitingCount="0" stopTime="0.00" timeLoss="2.90" rerouteNo="0" devices="tripinfo_205" vType="DEFAULT_VEHTYPE" speedFactor="0.90" vaporized=""/>
    <tripinfo id="80" depart="19.00" departLane="94_4way_33to4way_42_0" departPos="5.10" departSpeed="0.00" departDelay="0.29" arrival="61.00" arrivalLane="132_4way_60to4way_61_0" arrivalPos="85.60" arrivalSpeed="10.63" duration="42.00" routeLength="375.13" waitingTime="0.00" waitingCount="0" stopTime="0.00" timeLoss="5.64" rerouteNo="0" devices="tripinfo_80" vType="DEFAULT_VEHTYPE" speedFactor="0.78" vaporized=""/>
    <tripinfo id="89" depart="21.00" departLane="48_3way_75to4way_66_0" departPos="5.10" departSpeed="0.00" departDelay="0.18" arrival="63.00" arrivalLane="88_4way_39to4way_30_0" arrivalPos="85.60" arrivalSpeed="12.41" duration="42.00" routeLength="480.50" waitingTime="0.00" waitingCount="0" stopTime="0.00" timeLoss="4.64" rerouteNo="0" devices="tripinfo_89" vType="DEFAULT_VEHTYPE" speedFactor="0.93" vaporized=""/>
    <tripinfo id="114" depart="27.00" departLane="11_3way_2to4way_11_0" departPos="5.10" departSpeed="0.00" departDelay="0.33" arrival="65.00" arrivalLane="99_4way_38to4way_47_0" arrivalPos="85.60" arrivalSpeed="14.04" duration="38.00" routeLength="480.50" waitingTime="0.00" waitingCount="0" stopTime="0.00" timeLoss="4.31" rerouteNo="0" devices="tripinfo_114" vType="DEFAULT_VEHTYPE" speedFactor="1.06" vaporized=""/>
    <tripinfo id="202" depart="51.00" departLane="45_3way_74to3way_75_0" departPos="5.10" departSpeed="0.00" departDelay="3.75" arrival="69.00" arrivalLane="47_3way_75to3way_76_0" arrivalPos="85.60" arrivalSpeed="11.82" duration="18.00" routeLength="180.50" waitingTime="0.00" waitingCount="0" stopTime="0.00" timeLoss="3.30" rerouteNo="0" devices="tripinfo_202" vType="DEFAULT_VEHTYPE" speedFactor="0.90" vaporized=""/>
    <tripinfo id="252" depart="59.00" departLane="126_4way_58to4way_57_0" departPos="5.10" departSpeed="0.00" departDelay="0.06" arrival="69.00" arrivalLane="126_4way_58to4way_57_0" arrivalPos="85.60" arrivalSpeed="12.61" duration="10.00" routeLength="80.50" waitingTime="0.00" waitingCount="0" stopTime="0.00" timeLoss="3.16" rerouteNo="0" devices="tripinfo_252" vType="DEFAULT_VEHTYPE" speedFactor="0.98" vaporized=""/>
    <tripinfo id="70" depart="17.00" departLane="129_4way_58to4way_67_0" departPos="5.10" departSpeed="0.00" departDelay="0.63" arrival="70.00" arrivalLane="138_4way_67to4way_68_0" arrivalPos="85.60" arrivalSpeed="5.24" duration="53.00" routeLength="175.13" waitingTime="25.00" waitingCount="1" stopTime="0.00" timeLoss="35.04" rerouteNo="0" devices="tripinfo_70" vType="DEFAULT_VEHTYPE" speedFactor="0.75" vaporized=""/>
    <tripinfo id="148" depart="35.00" departLane="105_4way_41to4way_50_0" departPos="5.10" departSpeed="0.00" departDelay="0.38" arrival="70.00" arrivalLane="139_4way_68to4way_69_0" arrivalPos="85.60" arrivalSpeed="9.34" duration="35.00" routeLength="375.13" waitingTime="0.00" waitingCount="0" stopTime="0.00" timeLoss="8.71" rerouteNo="0" devices="tripinfo_148" vType="DEFAULT_VEHTYPE" speedFactor="1.07" vaporized=""/>
    <tripinfo id="167" depart="40.00" departLane="16_3way_4to3way_3_0" departPos="5.10" departSpeed="0.00" departDelay="0.94" arrival="71.00" arrivalLane="11_3way_2to4way_11_0" arrivalPos="85.60" arrivalSpeed="11.63" duration="31.00" routeLength="275.13" waitingTime="0.00" waitingCount="0" stopTime="0.00" timeLoss="6.89" rerouteNo="0" devices="tripinfo_167" vType="DEFAULT_VEHTYPE" speedFactor="0.85" vaporized=""/>
    <tripinfo id="257" depart="61.00" departLane="3_4way_10to3way_1_0" departPos="5.10" departSpeed="0.00" departDelay="0.89" arrival="71.00" arrivalLane="3_4way_10to3way_1_0" arrivalPos="85.60" arrivalSpeed="11.00" duration="10.00" routeLength="80.50" waitingTime="0.00" waitingCount="0" stopTime="0.00" timeLoss="2.99" rerouteNo="0" devices="tripinfo_257" vType="DEFAULT_VEHTYPE" speedFactor="0.83" vaporized=""/>
    <tripinfo id="0" depart="0.00" departLane="129_4way_67to4way_58_0" departPos="5.10" departSpeed="0.00" departDelay="0.00" arrival="72.00" arrivalLane="61_4way_13to4way_12_0" arrivalPos="85.60" arrivalSpeed="6.89" duration="72.00" routeLength="675.13" waitingTime="12.00" waitingCount="1" stopTime="0.00" timeLoss="22.55" rerouteNo="0" devices="tripinfo_0" vType="DEFAULT_VEHTYPE" speedFactor="1.00" vaporized=""/>
    <tripinfo id="14" depart="4.00" departLane="97_4way_37to4way_46_0" departPos="5.10" departSpeed="0.00" departDelay="0.72" arrival="73.00" arrivalLane="122_4way_55to4way_56_0" arrivalPos="85.60" arrivalSpeed="6.68" duration="69.00" routeLength="275.13" waitingTime="38.00" waitingCount="1" stopTime="0.00" timeLoss="47.40" rerouteNo="0" devices="tripinfo_14" vType="DEFAULT_VEHTYPE" speedFactor="0.95" vaporized=""/>
    <tripinfo id="212" depart="50.00" departLane="109_4way_46to4way_47_0" departPos="5.10" departSpeed="0.00" departDelay="0.41" arrival="73.00" arrivalLane="109_4way_46to4way_47_0" arrivalPos="85.60" arrivalSpeed="8.21" duration="23.00" routeLength="80.50" waitingTime="7.00" waitingCount="1" stopTime="0.00" timeLoss="16.65" rerouteNo="0" devices="tripinfo_212" vType="DEFAULT_VEHTYPE" speedFactor="1.00" vaporized=""/>
    <tripinfo id="17" depart="4.00" departLane="114_4way_57to4way_48_0" departPos="5.10" departSpeed="0.00" departDelay="0.02" arrival="76.00" arrivalLane="10_3way_3to3way_2_0" arrivalPos="85.60" arrivalSpeed="13.77" duration="72.00" routeLength="675.13" waitingTime="14.00" waitingCount="1" stopTime="0.00" timeLoss="24.36" rerouteNo="0" devices="tripinfo_17" vType="DEFAULT_VEHTYPE" speedFactor="1.04" vaporized=""/>
    <tripinfo id="60" depart="15.00" departLane="111_4way_48to4way_47_0" departPos="5.10" departSpeed="0.00" departDelay="0.97" arrival="76.00" arrivalLane="109_4way_47to4way_46_0" arrivalPos="85.60" arrivalSpeed="14.56" duration="61.00" routeLength="180.50" waitingTime="40.00" waitingCount="1" stopTime="0.00" timeLoss="49.01" rerouteNo="0" devices="tripinfo_60" vType="DEFAULT_VEHTYPE" speedFactor="1.12" vaporized=""/>
    <tripinfo id="75" depart="18.00" departLane="93_4way_33to4way_34_0" departPos="5.10" departSpeed="0.00" departDelay="0.46" arrival="77.00" arrivalLane="19_4way_34to3way_35_0" arrivalPos="85.60" arrivalSpeed="14.45" duration="59.00" routeLength="180.50" waitingTime="37.00" waitingCount="1" stopTime="0.00" timeLoss="46.54" rerouteNo="0" devices="tripinfo_75" vType="DEFAULT_VEHTYPE" speedFactor="1.09" vaporized=""/>
    <tripinfo id="176" depart="42.00" departLane="54_4way_69to3way_78_0" departPos="5.10" departSpeed="0.00" departDelay="0.83" arrival="77.00" arrivalLane="53_3way_78to3way_79_0" arrivalPos="85.60" arrivalSpeed="12.52" duration="35.00" routeLength="175.13" waitingTime="12.00" waitingCount="1" stopTime="0.00" timeLoss="21.02" rerouteNo="0" devices="tripinfo_176" vType="DEFAULT_VEHTYPE" speedFactor="0.97" vaporized=""/>
    <tripinfo id="26" depart="7.00" departLane="45_3way_74to3way_75_0" departPos="5.10" departSpeed="0.00" departDelay="0.92" arrival="78.00" arrivalLane="74_4way_21to4way_22_0" arrivalPos="85.60" arrivalSpeed="13.11" duration="71.00" routeLength="774.93" waitingTime="2.00" waitingCount="1" stopTime="0.00" timeLoss="15.34" rerouteNo="0" devices="tripinfo_26" vType="DEFAULT_VEHTYPE" speedFactor="1.03" vaporized=""/>
    <tripinfo id="31" depart="9.00" departLane="6_3way_17to4way_16_0" departPos="5.10" departSpeed="0.00" departDelay="1.75" arrival="78.00" arrivalLane="67_4way_16to4way_15_0" arrivalPos="85.60" arrivalSpeed="15.35" duration="69.00" routeLength="180.50" waitingTime="47.00" waitingCount="1" stopTime="0.00" timeLoss="56.84" rerouteNo="0" devices="tripinfo_31" vType="DEFAULT_VEHTYPE" speedFactor="1.11" vaporized=""/>
    <tripinfo id="112" depart="32.00" departLane="66_4way_14to4way_23_0" departPos="5.10" departSpeed="0.00" departDelay="5.80" arrival="78.00" arrivalLane="93_4way_33to4way_34_0" arrivalPos="85.60" arrivalSpeed="12.81" duration="46.00" routeLength="375.13" waitingTime="4.00" waitingCount="1" stopTime="0.00" timeLoss="15.85" rerouteNo="0" devices="tripinfo_112" vType="DEFAULT_VEHTYPE" speedFactor="0.95" vaporized=""/>
    <tripinfo id="10" depart="3.00" departLane="130_4way_59to4way_60_0" departPos="5.10" departSpeed="0.00" departDelay="0.66" arrival="79.00" arrivalLane="132_4way_60to4way_61_0" arrivalPos="85.60" arrivalSpeed="13.48" duration="76.00" routeLength="180.50" waitingTime="51.00" waitingCount="1" stopTime="0.00" timeLoss="62.55" rerouteNo="0" devices="tripinfo_10" vType="DEFAULT_VEHTYPE" speedFactor="1.04" vaporized=""/>
    <tripinfo id="49" depart="12.00" departLane="108_4way_52to4way_43_0" departPos="5.10" departSpeed="0.00" departDelay="0.54" arrival="79.00" arrivalLane="65_4way_15to4way_14_0" arrivalPos="85.60" arrivalSpeed="14.97" duration="67.00" routeLength="575.13" waitingTime="14.00" waitingCount="1" stopTime="0.00" timeLoss="26.89" rerouteNo="0" devices="tripinfo_49" vType="DEFAULT_VEHTYPE" speedFactor="1.08" vaporized=""/>
    <tripinfo id="57" depart="14.00" departLane="115_4way_49to4way_50_0" departPos="5.10" departSpeed="0.00" departDelay="0.67" arrival="79.00" arrivalLane="117_4way_50to4way_51_0" arrivalPos="85.60" arrivalSpeed="12.72" duration="65.00" routeLength="180.50" waitingTime="42.00" waitingCount="1" stopTime="0.00" timeLoss="51.38" rerouteNo="0" devices="tripinfo_57" vType="DEFAULT_VEHTYPE" speedFactor="0.97" vaporized=""/>
    <tripinfo id="58" depart="14.00" departLane="99_4way_38to4way_47_0" departPos="5.10" departSpeed="0.00" departDelay="0.43" arrival="79.00" arrivalLane="137_4way_66to4way_67_0" arrivalPos="85.60" arrivalSpeed="12.36" duration="65.00" routeLength="475.13" waitingTime="16.00" waitingCount="1" stopTime="0.00" timeLoss="27.14" rerouteNo="0" devices="tripinfo_58" vType="DEFAULT_VEHTYPE" speedFactor="0.93" vaporized=""/>
    <tripinfo id="145" depart="35.00" departLane="50_3way_76to4way_67_0" departPos="5.10" departSpeed="0.00" departDelay="1.08" arrival="79.00" arrivalLane="111_4way_48to4way_47_0" arrivalPos="85.60" arrivalSpeed="12.53" duration="44.00" routeLength="475.13" waitingTime="0.00" waitingCount="0" stopTime="0.00" timeLoss="6.93" rerouteNo="0" devices="tripinfo_145" vType="DEFAULT_VEHTYPE" speedFactor="0.96" vaporized=""/>
    <tripinfo id="45" depart="11.00" departLane="53_3way_79to3way_78_0" departPos="5.10" departSpeed="0.00" departDelay="0.47" arrival="80.00" arrivalLane="32_3way_63to3way_54_0" arrivalPos="85.60" arrivalSpeed="12.64" duration="69.00" routeLength="883.70" waitingTime="0.00" waitingCount="0" stopTime="0.00" timeLoss="5.26" rerouteNo="0" devices="tripinfo_45" vType="DEFAULT_VEHTYPE" speedFactor="1.00" vaporized=""/>
    <tripinfo id="169" depart="40.00" departLane="27_3way_45to4way_46_0" departPos="5.10" departSpeed="0.00" departDelay="0.47" arrival="80.00" arrivalLane="109_4way_46to4way_47_0" arrivalPos="85.60" arrivalSpeed="8.60" duration="40.00" routeLength="180.50" waitingTime="15.00" waitingCount="1" stopTime="0.00" timeLoss="27.81" rerouteNo="0" devices="tripinfo_169" vType="DEFAULT_VEHTYPE" speedFactor="1.09" vaporized=""/>
    <tripinfo id="63" depart="15.00" departLane="122_4way_55to4way_56_0" departPos="5.10" departSpeed="0.00" departDelay="0.26" arrival="81.00" arrivalLane="124_4way_56to4way_57_0" arrivalPos="85.60" arrivalSpeed="7.21" duration="66.00" routeLength="180.50" waitingTime="40.00" waitingCount="1" stopTime="0.00" timeLoss="52.19" rerouteNo="0" devices="tripinfo_63" vType="DEFAULT_VEHTYPE" speedFactor="0.95" vaporized=""/>
    <tripinfo id="249" depart="61.00" departLane="44_4way_64to3way_73_0" departPos="5.10" departSpeed="0.00" departDelay="2.76" arrival="81.00" arrivalLane="43_3way_73to3way_74_0" arrivalPos="85.60" arrivalSpeed="14.58" duration="20.00" routeLength="175.13" waitingTime="0.00" waitingCount="0" stopTime="0.00" timeLoss="7.69" rerouteNo="0" devices="tripinfo_249" vType="DEFAULT_VEHTYPE" speedFactor="1.12" vaporized=""/>
    <tripinfo id="288" depart="71.00" departLane="22_3way_5to3way_4_0" departPos="5.10" departSpeed="0.00" departDelay="3.64" arrival="81.00" arrivalLane="22_3way_5to3way_4_0" arrivalPos="85.60" arrivalSpeed="10.83" duration="10.00" routeLength="80.50" waitingTime="0.00" waitingCount="0" stopTime="0.00" timeLoss="2.80" rerouteNo="0" devices="tripinfo_288" vType="DEFAULT_VEHTYPE" speedFactor="0.82" vaporized=""/>
    <tripinfo id="255" depart="60.00" departLane="39_3way_63to4way_64_0" departPos="5.10" departSpeed="0.00" departDelay="0.35" arrival="82.00" arrivalLane="135_4way_64to4way_65_0" arrivalPos="85.60" arrivalSpeed="10.42" duration="22.00" routeLength="180.50" waitingTime="0.00" waitingCount="0" stopTime="0.00" timeLoss="4.88" rerouteNo="0" devices="tripinfo_255" vType="DEFAULT_VEHTYPE" speedFactor="0.76" vaporized=""/>
    <tripinfo id="311" depart="73.00" departLane="122_4way_56to4way_55_0" departPos="5.10" departSpeed="0.00" departDelay="0.26" arrival="82.00" arrivalLane="122_4way_56to4way_55_0" arrivalPos="85.60" arrivalSpeed="14.21" duration="9.00" routeLength="80.50" waitingTime="0.00" waitingCount="0" stopTime="0.00" timeLoss="3.36" rerouteNo="0" devices="tripinfo_311" vType="DEFAULT_VEHTYPE" speedFactor="1.04" vaporized=""/>
    <tripinfo id="106" depart="25.00" departLane="9_4way_19to3way_18_0" departPos="5.10" departSpeed="0.00" departDelay="0.21" arrival="83.00" arrivalLane="14_3way_27to3way_36_0" arrivalPos="85.60" arrivalSpeed="14.95" duration="58.00" routeLength="275.13" waitingTime="29.00" waitingCount="1" stopTime="0.00" timeLoss="39.67" rerouteNo="0" devices="tripinfo_106" vType="DEFAULT_VEHTYPE" speedFactor="1.16" vaporized=""/>
    <tripinfo id="196" depart="46.00" departLane="19_4way_34to3way_35_0" departPos="5.10" departSpeed="0.00" departDelay="0.16" arrival="83.00" arrivalLane="4_3way_26to3way_17_0" arrivalPos="85.60" arrivalSpeed="14.68" duration="37.00" routeLength="275.13" waitingTime="8.00" waitingCount="1" stopTime="0.00" timeLoss="18.08" rerouteNo="0" devices="tripinfo_196" vType="DEFAULT_VEHTYPE" speedFactor="1.07" vaporized=""/>
    <tripinfo id="307" depart="74.00" departLane="132_4way_60to4way_61_0" departPos="5.10" departSpeed="0.00" departDelay="2.19" arrival="83.00" arrivalLane="132_4way_60to4way_61_0" arrivalPos="85.60" arrivalSpeed="13.41" duration="9.00" routeLength="80.50" waitingTime="0.00" waitingCount="0" stopTime="0.00" timeLoss="3.29" rerouteNo="0" devices="tripinfo_307" vType="DEFAULT_VEHTYPE" speedFactor="1.04" vaporized=""/>
    <tripinfo id="162" depart="38.00" departLane="118_4way_50to4way_59_0" departPos="5.10" departSpeed="0.00" departDelay="0.11" arrival="84.00" arrivalLane="42_4way_70to3way_71_0" arrivalPos="85.60" arrivalSpeed="12.94" duration="46.00" routeLength="475.13" waitingTime="0.00" waitingCount="0" stopTime="0.00" timeLoss="9.85" rerouteNo="0" devices="tripinfo_162" vType="DEFAULT_VEHTYPE" speedFactor="0.96" vaporized=""/>
    <tripinfo id="180" depart="43.00" departLane="116_4way_49to4way_58_0" departPos="5.10" departSpeed="0.00" departDelay="0.90" arrival="84.00" arrivalLane="139_4way_68to4way_69_0" arrivalPos="85.60" arrivalSpeed="7.52" duration="41.00" routeLength="375.13" waitingTime="0.00" waitingCount="0" stopTime="0.00" timeLoss="14.55" rerouteNo="0" devices="tripinfo_180" vType="DEFAULT_VEHTYPE" speedFactor="1.04" vaporized=""/>
    <tripinfo id="271" depart="64.00" departLane="122_4way_56to4way_55_0" departPos="5.10" departSpeed="0.00" departDelay="0.61" arrival="84.00" arrivalLane="123_4way_55to4way_64_0" arrivalPos="85.60" arrivalSpeed="11.50" duration="20.00" routeLength="175.13" waitingTime="0.00" waitingCount="0" stopTime="0.00" timeLoss="5.51" rerouteNo="0" devices="tripinfo_271" vType="DEFAULT_VEHTYPE" speedFactor="0.90" vaporized=""/>
    <tripinfo id="283" depart="67.00" departLane="132_4way_60to4way_61_0" departPos="5.10" departSpeed="0.00" departDelay="0.81" arrival="84.00" arrivalLane="37_4way_61to3way_62_0" arrivalPos="85.60" arrivalSpeed="13.85" duration="17.00" routeLength="180.50" waitingTime="0.00" waitingCount="0" stopTime="0.00" timeLoss="3.96" rerouteNo="0" devices="tripinfo_283" vType="DEFAULT_VEHTYPE" speedFactor="1.04" vaporized=""/>