<?xml version="1.0" encoding="UTF-8"?>

<!-- generated on 2023-07-27 12:57:56 by Eclipse SUMO sumo Version 1.12.0
<configuration xmlns:xsi="http://www.w3.org/2001/XMLSchema-instance" xsi:noNamespaceSchemaLocation="http://sumo.dlr.de/xsd/sumoConfiguration.xsd">

    <input>
        <net-file value="../../data_generation/sq.net.xml"/>
        <route-files value="../../data_generation/sq.rou.xml"/>
    </input>

    <output>
        <tripinfo-output value="tripinfo.xml"/>
        <statistic-output value="statistic.xml"/>
    </output>

    <time>
        <begin value="0"/>
        <end value="3600"/>
    </time>

    <processing>
        <time-to-teleport value="-1"/>
    </processing>

    <traci_server>
        <remote-port value="38215"/>
    </traci_server>

    <random_number>
        <seed value="1395"/>
    </random_number>

    <gui_only>
        <gui-settings-file value="../../data_generation/view_HY_0402.xml"/>
    </gui_only>

</configuration>
-->

<tripinfos xmlns:xsi="http://www.w3.org/2001/XMLSchema-instance" xsi:noNamespaceSchemaLocation="http://sumo.dlr.de/xsd/tripinfo_file.xsd">
    <tripinfo id="0" depart="0.00" departLane="39_4way_20to4way_14_0" departPos="5.10" departSpeed="0.00" departDelay="0.00" arrival="18.00" arrivalLane="35_4way_14to4way_13_0" arrivalPos="85.60" arrivalSpeed="13.68" duration="18.00" routeLength="175.13" waitingTime="0.00" waitingCount="0" stopTime="0.00" timeLoss="4.86" rerouteNo="0" devices="tripinfo_0" vType="DEFAULT_VEHTYPE" speedFactor="1.00" vaporized=""/>
    <tripinfo id="21" depart="8.00" departLane="24_3way_31to3way_32_0" departPos="5.10" departSpeed="0.00" departDelay="0.22" arrival="18.00" arrivalLane="24_3way_31to3way_32_0" arrivalPos="85.60" arrivalSpeed="11.25" duration="10.00" routeLength="80.50" waitingTime="0.00" waitingCount="0" stopTime="0.00" timeLoss="2.53" rerouteNo="0" devices="tripinfo_21" vType="DEFAULT_VEHTYPE" speedFactor="0.82" vaporized=""/>
    <tripinfo id="24" depart="9.00" departLane="10_3way_17to3way_23_0" departPos="5.10" departSpeed="0.00" departDelay="0.11" arrival="18.00" arrivalLane="10_3way_17to3way_23_0" arrivalPos="85.60" arrivalSpeed="12.54" duration="9.00" routeLength="80.50" waitingTime="0.00" waitingCount="0" stopTime="0.00" timeLoss="2.93" rerouteNo="0" devices="tripinfo_24" vType="DEFAULT_VEHTYPE" speedFactor="0.97" vaporized=""/>
    <tripinfo id="15" depart="6.00" departLane="13_4way_19to3way_18_0" departPos="5.10" departSpeed="0.00" departDelay="0.44" arrival="25.00" arrivalLane="7_3way_18to3way_12_0" arrivalPos="85.60" arrivalSpeed="13.39" duration="19.00" routeLength="180.29" waitingTime="0.00" waitingCount="0" stopTime="0.00" timeLoss="5.03" rerouteNo="0" devices="tripinfo_15" vType="DEFAULT_VEHTYPE" speedFactor="1.05" vaporized=""/>
    <tripinfo id="11" depart="5.00" departLane="56_4way_8to4way_9_0" departPos="5.10" departSpeed="0.00" departDelay="0.93" arrival="33.00" arrivalLane="22_3way_3to3way_4_0" arrivalPos="85.60" arrivalSpeed="12.95" duration="28.00" routeLength="274.92" waitingTime="0.00" waitingCount="0" stopTime="0.00" timeLoss="6.79" rerouteNo="0" devices="tripinfo_11" vType="DEFAULT_VEHTYPE" speedFactor="1.01" vaporized=""/>
    <tripinfo id="17" depart="7.00" departLane="39_4way_14to4way_20_0" departPos="5.10" departSpeed="0.00" departDelay="0.70" arrival="33.00" arrivalLane="49_4way_21to4way_22_0" arrivalPos="85.60" arrivalSpeed="13.34" duration="26.00" routeLength="275.13" waitingTime="0.00" waitingCount="0" stopTime="0.00" timeLoss="5.70" rerouteNo="0" devices="tripinfo_17" vType="DEFAULT_VEHTYPE" speedFactor="1.04" vaporized=""/>
    <tripinfo id="19" depart="8.00" departLane="15_3way_2to4way_8_0" departPos="5.10" departSpeed="0.00" departDelay="0.96" arrival="35.00" arrivalLane="39_4way_14to4way_20_0" arrivalPos="85.60" arrivalSpeed="11.80" duration="27.00" routeLength="280.50" waitingTime="0.00" waitingCount="0" stopTime="0.00" timeLoss="3.84" rerouteNo="0" devices="tripinfo_19" vType="DEFAULT_VEHTYPE" speedFactor="0.89" vaporized=""/>
    <tripinfo id="42" depart="16.00" departLane="39_4way_14to4way_20_0" departPos="5.10" departSpeed="0.00" departDelay="0.45" arrival="42.00" arrivalLane="27_4way_26to3way_32_0" arrivalPos="85.60" arrivalSpeed="13.45" duration="26.00" routeLength="280.50" waitingTime="0.00" waitingCount="0" stopTime="0.00" timeLoss="4.75" rerouteNo="0" devices="tripinfo_42" vType="DEFAULT_VEHTYPE" speedFactor="0.99" vaporized=""/>
    <tripinfo id="58" depart="22.00" departLane="19_4way_25to3way_24_0" departPos="5.10" departSpeed="0.00" departDelay="0.52" arrival="42.00" arrivalLane="12_3way_24to3way_18_0" arrivalPos="85.60" arrivalSpeed="12.75" duration="20.00" routeLength="180.29" waitingTime="0.00" waitingCount="0" stopTime="0.00" timeLoss="4.49" rerouteNo="0" devices="tripinfo_58" vType="DEFAULT_VEHTYPE" speedFactor="0.93" vaporized=""/>
    <tripinfo id="77" depart="32.00" departLane="54_4way_27to4way_28_0" departPos="5.10" departSpeed="0.00" departDelay="3.49" arrival="42.00" arrivalLane="54_4way_27to4way_28_0" arrivalPos="85.60" arrivalSpeed="13.55" duration="10.00" routeLength="80.50" waitingTime="0.00" waitingCount="0" stopTime="0.00" timeLoss="3.49" rerouteNo="0" devices="tripinfo_77" vType="DEFAULT_VEHTYPE" speedFactor="0.99" vaporized=""/>
    <tripinfo id="88" depart="34.00" departLane="36_4way_19to4way_13_0" departPos="5.10" departSpeed="0.00" departDelay="1.41" arrival="43.00" arrivalLane="36_4way_19to4way_13_0" arrivalPos="85.60" arrivalSpeed="13.55" duration="9.00" routeLength="80.50" waitingTime="0.00" waitingCount="0" stopTime="0.00" timeLoss="3.27" rerouteNo="0" devices="tripinfo_88" vType="DEFAULT_VEHTYPE" speedFactor="1.06" vaporized=""/>
    <tripinfo id="34" depart="13.00" departLane="15_3way_2to4way_8_0" departPos="5.10" departSpeed="0.00" departDelay="0.41" arrival="48.00" arrivalLane="48_4way_20to4way_26_0" arrivalPos="85.60" arrivalSpeed="12.55" duration="35.00" routeLength="380.50" waitingTime="0.00" waitingCount="0" stopTime="0.00" timeLoss="6.07" rerouteNo="0" devices="tripinfo_34" vType="DEFAULT_VEHTYPE" speedFactor="0.96" vaporized=""/>
    <tripinfo id="67" depart="29.00" departLane="47_4way_20to4way_21_0" departPos="5.10" departSpeed="0.00" departDelay="4.19" arrival="48.00" arrivalLane="42_4way_21to4way_15_0" arrivalPos="85.60" arrivalSpeed="11.83" duration="19.00" routeLength="175.13" waitingTime="0.00" waitingCount="0" stopTime="0.00" timeLoss="3.97" rerouteNo="0" devices="tripinfo_67" vType="DEFAULT_VEHTYPE" speedFactor="0.88" vaporized=""/>
    <tripinfo id="93" depart="35.00" departLane="20_3way_34to3way_29_0" departPos="5.10" departSpeed="0.00" departDelay="0.56" arrival="52.00" arrivalLane="20_3way_34to3way_29_0" arrivalPos="182.40" arrivalSpeed="13.36" duration="17.00" routeLength="177.30" waitingTime="0.00" waitingCount="0" stopTime="0.00" timeLoss="3.59" rerouteNo="0" devices="tripinfo_93" vType="DEFAULT_VEHTYPE" speedFactor="1.00" vaporized=""/>
    <tripinfo id="97" depart="36.00" departLane="14_3way_3to3way_2_0" departPos="5.10" departSpeed="0.00" departDelay="0.08" arrival="52.00" arrivalLane="1_3way_2to3way_1_0" arrivalPos="85.60" arrivalSpeed="14.65" duration="16.00" routeLength="180.50" waitingTime="0.00" waitingCount="0" stopTime="0.00" timeLoss="3.69" rerouteNo="0" devices="tripinfo_97" vType="DEFAULT_VEHTYPE" speedFactor="1.06" vaporized=""/>
    <tripinfo id="98" depart="37.00" departLane="9_3way_12to4way_13_0" departPos="5.10" departSpeed="0.00" departDelay="0.71" arrival="55.00" arrivalLane="35_4way_13to4way_14_0" arrivalPos="85.60" arrivalSpeed="11.37" duration="18.00" routeLength="180.50" waitingTime="0.00" waitingCount="0" stopTime="0.00" timeLoss="3.11" rerouteNo="0" devices="tripinfo_98" vType="DEFAULT_VEHTYPE" speedFactor="0.88" vaporized=""/>
    <tripinfo id="123" depart="46.00" departLane="36_4way_19to4way_13_0" departPos="5.10" departSpeed="0.00" departDelay="0.45" arrival="55.00" arrivalLane="36_4way_19to4way_13_0" arrivalPos="85.60" arrivalSpeed="13.74" duration="9.00" routeLength="80.50" waitingTime="0.00" waitingCount="0" stopTime="0.00" timeLoss="3.54" rerouteNo="0" devices="tripinfo_123" vType="DEFAULT_VEHTYPE" speedFactor="1.06" vaporized=""/>
    <tripinfo id="84" depart="32.00" departLane="15_3way_2to4way_8_0" departPos="5.10" departSpeed="0.00" departDelay="0.89" arrival="56.00" arrivalLane="39_4way_14to4way_20_0" arrivalPos="85.60" arrivalSpeed="14.04" duration="24.00" routeLength="280.50" waitingTime="0.00" waitingCount="0" stopTime="0.00" timeLoss="4.67" rerouteNo="0" devices="tripinfo_84" vType="DEFAULT_VEHTYPE" speedFactor="1.06" vaporized=""/>
    <tripinfo id="127" depart="48.00" departLane="38_4way_15to4way_14_0" departPos="5.10" departSpeed="0.00" departDelay="0.97" arrival="58.00" arrivalLane="38_4way_15to4way_14_0" arrivalPos="85.60" arrivalSpeed="13.69" duration="10.00" routeLength="80.50" waitingTime="0.00" waitingCount="0" stopTime="0.00" timeLoss="3.23" rerouteNo="0" devices="tripinfo_127" vType="DEFAULT_VEHTYPE" speedFactor="1.00" vaporized=""/>
    <tripinfo id="135" depart="50.00" departLane="29_4way_27to3way_33_0" departPos="5.10" departSpeed="0.00" departDelay="0.01" arrival="59.00" arrivalLane="29_4way_27to3way_33_0" arrivalPos="85.60" arrivalSpeed="15.13" duration="9.00" routeLength="80.50" waitingTime="0.00" waitingCount="0" stopTime="0.00" timeLoss="3.51" rerouteNo="0" devices="tripinfo_135" vType="DEFAULT_VEHTYPE" speedFactor="1.09" vaporized=""/>
    <tripinfo id="57" depart="25.00" departLane="40_4way_8to4way_14_0" departPos="5.10" departSpeed="0.00" departDelay="3.89" arrival="61.00" arrivalLane="49_4way_21to4way_22_0" arrivalPos="85.60" arrivalSpeed="12.83" duration="36.00" routeLength="375.13" waitingTime="0.00" waitingCount="0" stopTime="0.00" timeLoss="6.38" rerouteNo="0" devices="tripinfo_57" vType="DEFAULT_VEHTYPE" speedFactor="0.97" vaporized=""/>
    <tripinfo id="103" depart="39.00" departLane="18_3way_24to3way_31_0" departPos="5.10" departSpeed="0.00" departDelay="0.86" arrival="61.00" arrivalLane="24_3way_31to3way_32_0" arrivalPos="85.60" arrivalSpeed="15.15" duration="22.00" routeLength="277.30" waitingTime="0.00" waitingCount="0" stopTime="0.00" timeLoss="3.82" rerouteNo="0" devices="tripinfo_103" vType="DEFAULT_VEHTYPE" speedFactor="1.15" vaporized=""/>
    <tripinfo id="102" depart="38.00" departLane="23_4way_9to3way_3_0" departPos="5.10" departSpeed="0.00" departDelay="0.23" arrival="63.00" arrivalLane="1_3way_2to3way_1_0" arrivalPos="85.60" arrivalSpeed="13.56" duration="25.00" routeLength="275.13" waitingTime="0.00" waitingCount="0" stopTime="0.00" timeLoss="5.55" rerouteNo="0" devices="tripinfo_102" vType="DEFAULT_VEHTYPE" speedFactor="1.05" vaporized=""/>
    <tripinfo id="153" depart="57.00" departLane="53_4way_26to4way_27_0" departPos="5.10" departSpeed="0.00" departDelay="0.34" arrival="67.00" arrivalLane="53_4way_26to4way_27_0" arrivalPos="85.60" arrivalSpeed="11.68" duration="10.00" routeLength="80.50" waitingTime="0.00" waitingCount="0" stopTime="0.00" timeLoss="3.09" rerouteNo="0" devices="tripinfo_153" vType="DEFAULT_VEHTYPE" speedFactor="0.90" vaporized=""/>
    <tripinfo id="157" depart="59.00" departLane="39_4way_20to4way_14_0" departPos="5.10" departSpeed="0.00" departDelay="0.86" arrival="69.00" arrivalLane="39_4way_20to4way_14_0" arrivalPos="85.60" arrivalSpeed="12.16" duration="10.00" routeLength="80.50" waitingTime="0.00" waitingCount="0" stopTime="0.00" timeLoss="3.00" rerouteNo="0" devices="tripinfo_157" vType="DEFAULT_VEHTYPE" speedFactor="0.94" vaporized=""/>
    <tripinfo id="76" depart="29.00" departLane="53_4way_27to4way_26_0" departPos="5.10" departSpeed="0.00" departDelay="0.86" arrival="70.00" arrivalLane="53_4way_27to4way_26_0" arrivalPos="85.60" arrivalSpeed="6.02" duration="41.00" routeLength="80.50" waitingTime="27.00" waitingCount="1" stopTime="0.00" timeLoss="34.24" rerouteNo="0" devices="tripinfo_76" vType="DEFAULT_VEHTYPE" speedFactor="0.90" vaporized=""/>
    <tripinfo id="100" depart="38.00" departLane="17_3way_23to4way_22_0" departPos="5.10" departSpeed="0.00" departDelay="0.97" arrival="70.00" arrivalLane="51_4way_22to4way_28_0" arrivalPos="85.60" arrivalSpeed="5.24" duration="32.00" routeLength="175.13" waitingTime="9.00" waitingCount="1" stopTime="0.00" timeLoss="20.89" rerouteNo="0" devices="tripinfo_100" vType="DEFAULT_VEHTYPE" speedFactor="1.20" vaporized=""/>
    <tripinfo id="132" depart="49.00" departLane="17_4way_22to3way_23_0" departPos="5.10" departSpeed="0.00" departDelay="0.12" arrival="70.00" arrivalLane="16_3way_23to3way_29_0" arrivalPos="85.60" arrivalSpeed="11.30" duration="21.00" routeLength="180.29" waitingTime="0.00" waitingCount="0" stopTime="0.00" timeLoss="4.68" rerouteNo="0" devices="tripinfo_132" vType="DEFAULT_VEHTYPE" speedFactor="0.86" vaporized=""/>
    <tripinfo id="109" depart="41.00" departLane="53_4way_26to4way_27_0" departPos="5.10" departSpeed="0.00" departDelay="0.64" arrival="72.00" arrivalLane="51_4way_28to4way_22_0" arrivalPos="85.60" arrivalSpeed="7.00" duration="31.00" routeLength="275.13" waitingTime="2.00" waitingCount="1" stopTime="0.00" timeLoss="11.36" rerouteNo="0" devices="tripinfo_109" vType="DEFAULT_VEHTYPE" speedFactor="1.04" vaporized=""/>
    <tripinfo id="168" depart="63.00" departLane="15_3way_2to4way_8_0" departPos="5.10" departSpeed="0.00" departDelay="0.79" arrival="72.00" arrivalLane="15_3way_2to4way_8_0" arrivalPos="85.60" arrivalSpeed="14.25" duration="9.00" routeLength="80.50" waitingTime="0.00" waitingCount="0" stopTime="0.00" timeLoss="3.27" rerouteNo="0" devices="tripinfo_168" vType="DEFAULT_VEHTYPE" speedFactor="1.10" vaporized=""/>
    <tripinfo id="170" depart="63.00" departLane="35_4way_14to4way_13_0" departPos="5.10" departSpeed="0.00" departDelay="0.05" arrival="72.00" arrivalLane="35_4way_14to4way_13_0" arrivalPos="85.60" arrivalSpeed="13.06" duration="9.00" routeLength="80.50" waitingTime="0.00" waitingCount="0" stopTime="0.00" timeLoss="2.83" rerouteNo="0" devices="tripinfo_170" vType="DEFAULT_VEHTYPE" speedFactor="1.00" vaporized=""/>
    <tripinfo id="2" depart="1.00" departLane="55_4way_8to4way_7_0" departPos="5.10" departSpeed="0.00" departDelay="0.26" arrival="73.00" arrivalLane="7_3way_12to3way_18_0" arrivalPos="85.60" arrivalSpeed="7.67" duration="72.00" routeLength="375.13" waitingTime="34.00" waitingCount="1" stopTime="0.00" timeLoss="45.28" rerouteNo="0" devices="tripinfo_2" vType="DEFAULT_VEHTYPE" speedFactor="1.04" vaporized=""/>
    <tripinfo id="55" depart="26.00" departLane="47_4way_20to4way_21_0" departPos="5.10" departSpeed="0.00" departDelay="5.63" arrival="73.00" arrivalLane="33_4way_16to4way_10_0" arrivalPos="85.60" arrivalSpeed="8.57" duration="47.00" routeLength="375.13" waitingTime="6.00" waitingCount="1" stopTime="0.00" timeLoss="17.25" rerouteNo="0" devices="tripinfo_55" vType="DEFAULT_VEHTYPE" speedFactor="0.94" vaporized=""/>
    <tripinfo id="80" depart="30.00" departLane="1_3way_2to3way_1_0" departPos="5.10" departSpeed="0.00" departDelay="0.38" arrival="73.00" arrivalLane="3_3way_1to4way_7_0" arrivalPos="85.60" arrivalSpeed="6.53" duration="43.00" routeLength="175.13" waitingTime="14.00" waitingCount="1" stopTime="0.00" timeLoss="25.61" rerouteNo="0" devices="tripinfo_80" vType="DEFAULT_VEHTYPE" speedFactor="0.78" vaporized=""/>
    <tripinfo id="91" depart="34.00" departLane="17_4way_22to3way_23_0" departPos="5.10" departSpeed="0.00" departDelay="0.30" arrival="73.00" arrivalLane="10_3way_23to3way_17_0" arrivalPos="85.60" arrivalSpeed="6.77" duration="39.00" routeLength="175.13" waitingTime="14.00" waitingCount="1" stopTime="0.00" timeLoss="26.41" rerouteNo="0" devices="tripinfo_91" vType="DEFAULT_VEHTYPE" speedFactor="1.04" vaporized=""/>
    <tripinfo id="111" depart="46.00" departLane="3_3way_1to4way_7_0" departPos="5.10" departSpeed="0.00" departDelay="4.90" arrival="75.00" arrivalLane="3_3way_1to4way_7_0" arrivalPos="85.60" arrivalSpeed="8.79" duration="29.00" routeLength="80.50" waitingTime="13.00" waitingCount="1" stopTime="0.00" timeLoss="21.95" rerouteNo="0" devices="tripinfo_111" vType="DEFAULT_VEHTYPE" speedFactor="0.84" vaporized=""/>
    <tripinfo id="144" depart="54.00" departLane="51_4way_22to4way_28_0" departPos="5.10" departSpeed="0.00" departDelay="0.68" arrival="75.00" arrivalLane="51_4way_22to4way_28_0" arrivalPos="85.60" arrivalSpeed="10.66" duration="21.00" routeLength="80.50" waitingTime="5.00" waitingCount="1" stopTime="0.00" timeLoss="14.95" rerouteNo="0" devices="tripinfo_144" vType="DEFAULT_VEHTYPE" speedFactor="1.07" vaporized=""/>
    <tripinfo id="174" depart="65.00" departLane="9_3way_12to4way_13_0" departPos="5.10" departSpeed="0.00" departDelay="0.57" arrival="75.00" arrivalLane="9_3way_12to4way_13_0" arrivalPos="85.60" arrivalSpeed="12.26" duration="10.00" routeLength="80.50" waitingTime="0.00" waitingCount="0" stopTime="0.00" timeLoss="3.45" rerouteNo="0" devices="tripinfo_174" vType="DEFAULT_VEHTYPE" speedFactor="0.94" vaporized=""/>
    <tripinfo id="122" depart="46.00" departLane="23_3way_3to4way_9_0" departPos="5.10" departSpeed="0.00" departDelay="0.82" arrival="76.00" arrivalLane="34_4way_9to4way_10_0" arrivalPos="85.60" arrivalSpeed="15.59" duration="30.00" routeLength="175.13" waitingTime="9.00" waitingCount="1" stopTime="0.00" timeLoss="18.19" rerouteNo="0" devices="tripinfo_122" vType="DEFAULT_VEHTYPE" speedFactor="1.20" vaporized=""/>
    <tripinfo id="159" depart="59.00" departLane="41_4way_15to4way_16_0" departPos="5.10" departSpeed="0.00" departDelay="0.12" arrival="76.00" arrivalLane="11_4way_16to3way_17_0" arrivalPos="85.60" arrivalSpeed="12.97" duration="17.00" routeLength="180.50" waitingTime="0.00" waitingCount="0" stopTime="0.00" timeLoss="3.79" rerouteNo="0" devices="tripinfo_159" vType="DEFAULT_VEHTYPE" speedFactor="0.99" vaporized=""/>
    <tripinfo id="1" depart="1.00" departLane="36_4way_13to4way_19_0" departPos="5.10" departSpeed="0.00" departDelay="0.63" arrival="77.00" arrivalLane="46_4way_19to4way_25_0" arrivalPos="85.60" arrivalSpeed="14.32" duration="76.00" routeLength="180.50" waitingTime="53.00" waitingCount="1" stopTime="0.00" timeLoss="62.78" rerouteNo="0" devices="tripinfo_1" vType="DEFAULT_VEHTYPE" speedFactor="1.04" vaporized=""/>
    <tripinfo id="12" depart="5.00" departLane="17_4way_22to3way_23_0" departPos="5.10" departSpeed="0.00" departDelay="0.56" arrival="77.00" arrivalLane="4_3way_17to3way_11_0" arrivalPos="85.60" arrivalSpeed="15.46" duration="72.00" routeLength="275.13" waitingTime="41.00" waitingCount="1" stopTime="0.00" timeLoss="53.61" rerouteNo="0" devices="tripinfo_12" vType="DEFAULT_VEHTYPE" speedFactor="1.16" vaporized=""/>
    <tripinfo id="22" depart="9.00" departLane="7_3way_12to3way_18_0" departPos="5.10" departSpeed="0.00" departDelay="0.85" arrival="77.00" arrivalLane="13_3way_18to4way_19_0" arrivalPos="85.60" arrivalSpeed="13.70" duration="68.00" routeLength="175.13" waitingTime="46.00" waitingCount="1" stopTime="0.00" timeLoss="54.13" rerouteNo="0" devices="tripinfo_22" vType="DEFAULT_VEHTYPE" speedFactor="1.00" vaporized=""/>
    <tripinfo id="29" depart="11.00" departLane="24_3way_31to3way_32_0" departPos="5.10" departSpeed="0.00" departDelay="0.26" arrival="77.00" arrivalLane="16_3way_29to3way_23_0" arrivalPos="85.60" arrivalSpeed="8.52" duration="66.00" routeLength="577.30" waitingTime="9.00" waitingCount="1" stopTime="0.00" timeLoss="22.22" rerouteNo="0" devices="tripinfo_29" vType="DEFAULT_VEHTYPE" speedFactor="0.95" vaporized=""/>
    <tripinfo id="48" depart="18.00" departLane="49_4way_22to4way_21_0" departPos="5.10" departSpeed="0.00" departDelay="0.23" arrival="77.00" arrivalLane="48_4way_20to4way_26_0" arrivalPos="85.60" arrivalSpeed="11.42" duration="59.00" routeLength="275.13" waitingTime="27.00" waitingCount="1" stopTime="0.00" timeLoss="34.49" rerouteNo="0" devices="tripinfo_48" vType="DEFAULT_VEHTYPE" speedFactor="0.83" vaporized=""/>
    <tripinfo id="68" depart="26.00" departLane="33_4way_16to4way_10_0" departPos="5.10" departSpeed="0.00" departDelay="0.82" arrival="77.00" arrivalLane="31_4way_10to3way_4_0" arrivalPos="85.60" arrivalSpeed="14.07" duration="51.00" routeLength="180.50" waitingTime="28.00" waitingCount="1" stopTime="0.00" timeLoss="38.61" rerouteNo="0" devices="tripinfo_68" vType="DEFAULT_VEHTYPE" speedFactor="1.09" vaporized=""/>
    <tripinfo id="107" depart="44.00" departLane="17_4way_22to3way_23_0" departPos="5.10" departSpeed="0.00" departDelay="4.38" arrival="77.00" arrivalLane="10_3way_23to3way_17_0" arrivalPos="85.60" arrivalSpeed="10.00" duration="33.00" routeLength="175.13" waitingTime="8.00" waitingCount="1" stopTime="0.00" timeLoss="20.99" rerouteNo="0" devices="tripinfo_107" vType="DEFAULT_VEHTYPE" speedFactor="1.10" vaporized=""/>
    <tripinfo id="179" depart="67.00" departLane="56_4way_8to4way_9_0" departPos="5.10" departSpeed="0.00" departDelay="0.72" arrival="77.00" arrivalLane="56_4way_8to4way_9_0" arrivalPos="85.60" arrivalSpeed="13.12" duration="10.00" routeLength="80.50" waitingTime="0.00" waitingCount="0" stopTime="0.00" timeLoss="3.12" rerouteNo="0" devices="tripinfo_179" vType="DEFAULT_VEHTYPE" speedFactor="0.97" vaporized=""/>
    <tripinfo id="20" depart="8.00" departLane="4_3way_11to3way_17_0" departPos="5.10" departSpeed="0.00" departDelay="0.59" arrival="79.00" arrivalLane="10_3way_17to3way_23_0" arrivalPos="85.60" arrivalSpeed="11.77" duration="71.00" routeLength="180.50" waitingTime="46.00" waitingCount="1" stopTime="0.00" timeLoss="55.96" rerouteNo="0" devices="tripinfo_20" vType="DEFAULT_VEHTYPE" speedFactor="0.89" vaporized=""/>
    <tripinfo id="104" depart="39.00" departLane="47_4way_21to4way_20_0" departPos="5.10" departSpeed="0.00" departDelay="0.49" arrival="79.00" arrivalLane="45_4way_20to4way_19_0" arrivalPos="85.60" arrivalSpeed="13.20" duration="40.00" routeLength="180.50" waitingTime="18.00" waitingCount="1" stopTime="0.00" timeLoss="25.85" rerouteNo="0" devices="tripinfo_104" vType="DEFAULT_VEHTYPE" speedFactor="0.95" vaporized=""/>
    <tripinfo id="130" depart="49.00" departLane="33_4way_10to4way_16_0" departPos="5.10" departSpeed="0.00" departDelay="0.86" arrival="79.00" arrivalLane="51_4way_22to4way_28_0" arrivalPos="85.60" arrivalSpeed="13.56" duration="30.00" routeLength="280.50" waitingTime="0.00" waitingCount="0" stopTime="0.00" timeLoss="8.97" rerouteNo="0" devices="tripinfo_130" vType="DEFAULT_VEHTYPE" speedFactor="0.98" vaporized=""/>
    <tripinfo id="13" depart="5.00" departLane="7_3way_18to3way_12_0" departPos="5.10" departSpeed="0.00" departDelay="0.19" arrival="80.00" arrivalLane="32_3way_6to4way_7_0" arrivalPos="85.60" arrivalSpeed="13.16" duration="75.00" routeLength="280.30" waitingTime="42.00" waitingCount="1" stopTime="0.00" timeLoss="53.51" rerouteNo="0" devices="tripinfo_13" vType="DEFAULT_VEHTYPE" speedFactor="0.98" vaporized=""/>
    <tripinfo id="110" depart="41.00" departLane="17_3way_23to4way_22_0" departPos="5.10" departSpeed="0.00" departDelay="0.27" arrival="80.00" arrivalLane="30_4way_28to3way_34_0" arrivalPos="85.60" arrivalSpeed="14.15" duration="39.00" routeLength="275.13" waitingTime="6.00" waitingCount="1" stopTime="0.00" timeLoss="19.59" rerouteNo="0" devices="tripinfo_110" vType="DEFAULT_VEHTYPE" speedFactor="1.05" vaporized=""/>
    <tripinfo id="63" depart="24.00" departLane="55_4way_8to4way_7_0" departPos="5.10" departSpeed="0.00" departDelay="0.67" arrival="81.00" arrivalLane="36_4way_13to4way_19_0" arrivalPos="85.60" arrivalSpeed="12.72" duration="57.00" routeLength="275.13" waitingTime="24.00" waitingCount="1" stopTime="0.00" timeLoss="35.28" rerouteNo="0" devices="tripinfo_63" vType="DEFAULT_VEHTYPE" speedFactor="0.95" vaporized=""/>
    <tripinfo id="28" depart="11.00" departLane="6_3way_11to4way_10_0" departPos="5.10" departSpeed="0.00" departDelay="0.63" arrival="82.00" arrivalLane="40_4way_8to4way_14_0" arrivalPos="85.60" arrivalSpeed="13.00" duration="71.00" routeLength="375.13" waitingTime="32.00" waitingCount="1" stopTime="0.00" timeLoss="43.52" rerouteNo="0" devices="tripinfo_28" vType="DEFAULT_VEHTYPE" speedFactor="1.03" vaporized=""/>
    <tripinfo id="61" depart="23.00" departLane="12_3way_18to3way_24_0" departPos="5.10" departSpeed="0.00" departDelay="0.41" arrival="82.00" arrivalLane="19_3way_24to4way_25_0" arrivalPos="85.60" arrivalSpeed="12.15" duration="59.00" routeLength="175.13" waitingTime="33.00" waitingCount="1" stopTime="0.00" timeLoss="45.70" rerouteNo="0" devices="tripinfo_61" vType="DEFAULT_VEHTYPE" speedFactor="1.01" vaporized=""/>
    <tripinfo id="43" depart="23.00" departLane="47_4way_20to4way_21_0" departPos="5.10" departSpeed="0.00" departDelay="7.08" arrival="83.00" arrivalLane="4_3way_17to3way_11_0" arrivalPos="85.60" arrivalSpeed="13.52" duration="60.00" routeLength="475.13" waitingTime="12.00" waitingCount="1" stopTime="0.00" timeLoss="24.27" rerouteNo="0" devices="tripinfo_43" vType="DEFAULT_VEHTYPE" speedFactor="0.97" vaporized=""/>
    <tripinfo id="133" depart="50.00" departLane="42_4way_15to4way_21_0" departPos="5.10" departSpeed="0.00" departDelay="0.75" arrival="83.00" arrivalLane="49_4way_21to4way_22_0" arrivalPos="85.60" arrivalSpeed="13.85" duration="33.00" routeLength="175.13" waitingTime="10.00" waitingCount="1" stopTime="0.00" timeLoss="19.82" rerouteNo="0" devices="tripinfo_133" vType="DEFAULT_VEHTYPE" speedFactor="1.01" vaporized=""/>
    <tripinfo id="180" depart="67.00" departLane="10_3way_17to3way_23_0" departPos="5.10" departSpeed="0.00" departDelay="0.35" arrival="84.00" arrivalLane="16_3way_23to3way_29_0" arrivalPos="85.60" arrivalSpeed="13.67" duration="17.00" routeLength="180.50" waitingTime="0.00" waitingCount="0" stopTime="0.00" timeLoss="3.69" rerouteNo="0" devices="tripinfo_180" vType="DEFAULT_VEHTYPE" speedFactor="1.04" vaporized=""/>
    <tripinfo id="5" depart="2.00" departLane="37_4way_7to4way_13_0" departPos="5.10" departSpeed="0.00" departDelay="0.15" arrival="85.00" arrivalLane="38_4way_14to4way_15_0" arrivalPos="85.60" arrivalSpeed="12.93" duration="83.00" routeLength="275.13" waitingTime="53.00" waitingCount="1" stopTime="0.00" timeLoss="61.28" rerouteNo="0" devices="tripinfo_5" vType="DEFAULT_VEHTYPE" speedFactor="0.94" vaporized=""/>
    <tripinfo id="45" depart="17.00" departLane="3_3way_1to4way_7_0" departPos="5.10" departSpeed="0.00" departDelay="0.34" arrival="85.00" arrivalLane="36_4way_13to4way_19_0" arrivalPos="85.60" arrivalSpeed="12.83" duration="68.00" routeLength="280.50" waitingTime="37.00" waitingCount="1" stopTime="0.00" timeLoss="47.77" rerouteNo="0" devices="tripinfo_45" vType="DEFAULT_VEHTYPE" speedFactor="1.00" vaporized=""/>
    <tripinfo id="89" depart="33.00" departLane="29_3way_33to4way_27_0" departPos="5.10" departSpeed="0.00" departDelay="0.04" arrival="85.00" arrivalLane="53_4way_27to4way_26_0" arrivalPos="85.60" arrivalSpeed="11.93" duration="52.00" routeLength="175.13" waitingTime="26.00" waitingCount="1" stopTime="0.00" timeLoss="36.93" rerouteNo="0" devices="tripinfo_89" vType="DEFAULT_VEHTYPE" speedFactor="0.93" vaporized=""/>
    <tripinfo id="176" depart="66.00" departLane="19_3way_24to4way_25_0" departPos="5.10" departSpeed="0.00" departDelay="0.83" arrival="85.00" arrivalLane="52_4way_25to4way_26_0" arrivalPos="85.60" arrivalSpeed="8.29" duration="19.00" routeLength="180.50" waitingTime="0.00" waitingCount="0" stopTime="0.00" timeLoss="5.43" rerouteNo="0" devices="tripinfo_176" vType="DEFAULT_VEHTYPE" speedFactor="0.97" vaporized=""/>
    <tripinfo id="52" depart="20.00" departLane="29_3way_33to4way_27_0" departPos="5.10" departSpeed="0.00" departDelay="0.74" arrival="86.00" arrivalLane="47_4way_21to4way_20_0" arrivalPos="85.60" arrivalSpeed="13.10" duration="66.00" routeLength="275.13" waitingTime="34.00" waitingCount="1" stopTime="0.00" timeLoss="46.13" rerouteNo="0" devices="tripinfo_52" vType="DEFAULT_VEHTYPE" speedFactor="1.03" vaporized=""/>
    <tripinfo id="161" depart="60.00" departLane="24_3way_31to3way_32_0" departPos="5.10" departSpeed="0.00" departDelay="0.38" arrival="86.00" arrivalLane="28_3way_33to3way_34_0" arrivalPos="85.60" arrivalSpeed="12.97" duration="26.00" routeLength="280.50" waitingTime="0.00" waitingCount="0" stopTime="0.00" timeLoss="3.71" rerouteNo="0" devices="tripinfo_161" vType="DEFAULT_VEHTYPE" speedFactor="0.95" vaporized=""/>
    <tripinfo id="128" depart="48.00" departLane="46_4way_19to4way_25_0" departPos="5.10" departSpeed="0.00" departDelay="0.60" arrival="87.00" arrivalLane="26_3way_32to3way_33_0" arrivalPos="85.60" arrivalSpeed="13.78" duration="39.00" routeLength="375.13" waitingTime="0.00" waitingCount="0" stopTime="0.00" timeLoss="10.93" rerouteNo="0" devices="tripinfo_128" vType="DEFAULT_VEHTYPE" speedFactor="1.02" vaporized=""/>
    <tripinfo id="124" depart="46.00" departLane="28_3way_33to3way_34_0" departPos="5.10" departSpeed="0.00" departDelay="0.08" arrival="88.00" arrivalLane="51_4way_28to4way_22_0" arrivalPos="85.60" arrivalSpeed="11.38" duration="42.00" routeLength="275.13" waitingTime="7.00" waitingCount="1" stopTime="0.00" timeLoss="23.66" rerouteNo="0" devices="tripinfo_124" vType="DEFAULT_VEHTYPE" speedFactor="1.11" vaporized=""/>
    <tripinfo id="74" depart="28.00" departLane="14_3way_3to3way_2_0" departPos="5.10" departSpeed="0.00" departDelay="0.60" arrival="89.00" arrivalLane="7_3way_12to3way_18_0" arrivalPos="85.60" arrivalSpeed="10.53" duration="61.00" routeLength="577.30" waitingTime="0.00" waitingCount="0" stopTime="0.00" timeLoss="9.54" rerouteNo="0" devices="tripinfo_74" vType="DEFAULT_VEHTYPE" speedFactor="0.81" vaporized=""/>