<?xml version="1.0" encoding="UTF-8"?>

<!-- generated on 2023-11-25 15:05:53 by Eclipse SUMO sumo Version 1.12.0
<configuration xmlns:xsi="http://www.w3.org/2001/XMLSchema-instance" xsi:noNamespaceSchemaLocation="http://sumo.dlr.de/xsd/sumoConfiguration.xsd">

    <input>
        <net-file value="../../data_generation/sapporo_HY.net.xml"/>
        <route-files value="../../data_generation/sapporo_HY.rou.xml"/>
    </input>

    <output>
        <tripinfo-output value="tripinfo.xml"/>
        <statistic-output value="statistic.xml"/>
    </output>

    <time>
        <begin value="0"/>
        <end value="3600"/>
    </time>

    <processing>
        <time-to-teleport value="-1"/>
    </processing>

    <traci_server>
        <remote-port value="36321"/>
    </traci_server>

    <random_number>
        <seed value="3"/>
    </random_number>

    <gui_only>
        <gui-settings-file value="../../data_generation/view_HY_0402.xml"/>
    </gui_only>

</configuration>
-->

<tripinfos xmlns:xsi="http://www.w3.org/2001/XMLSchema-instance" xsi:noNamespaceSchemaLocation="http://sumo.dlr.de/xsd/tripinfo_file.xsd">
    <tripinfo id="7" depart="3.00" departLane="12_3way_B10to3way_A09_0" departPos="5.10" departSpeed="0.00" departDelay="0.13" arrival="22.00" arrivalLane="12_3way_B10to3way_A09_0" arrivalPos="182.40" arrivalSpeed="10.65" duration="19.00" routeLength="177.30" waitingTime="0.00" waitingCount="0" stopTime="0.00" timeLoss="2.72" rerouteNo="0" devices="tripinfo_7" vType="DEFAULT_VEHTYPE" speedFactor="0.81" vaporized=""/>
    <tripinfo id="16" depart="7.00" departLane="32_3way_D05to4way_D04_0" departPos="5.10" departSpeed="0.00" departDelay="0.44" arrival="27.00" arrivalLane="23_4way_D04to3way_C04_0" arrivalPos="85.60" arrivalSpeed="15.50" duration="20.00" routeLength="180.30" waitingTime="0.00" waitingCount="0" stopTime="0.00" timeLoss="7.55" rerouteNo="0" devices="tripinfo_16" vType="DEFAULT_VEHTYPE" speedFactor="1.17" vaporized=""/>
    <tripinfo id="18" depart="8.00" departLane="96_4way_E05to4way_F05_0" departPos="5.10" departSpeed="0.00" departDelay="0.62" arrival="27.00" arrivalLane="113_4way_F05to4way_G05_0" arrivalPos="85.60" arrivalSpeed="11.06" duration="19.00" routeLength="180.50" waitingTime="0.00" waitingCount="0" stopTime="0.00" timeLoss="3.55" rerouteNo="0" devices="tripinfo_18" vType="DEFAULT_VEHTYPE" speedFactor="0.88" vaporized=""/>
    <tripinfo id="51" depart="21.00" departLane="83_4way_D06to4way_D07_0" departPos="5.10" departSpeed="0.00" departDelay="0.09" arrival="31.00" arrivalLane="83_4way_D06to4way_D07_0" arrivalPos="85.60" arrivalSpeed="12.91" duration="10.00" routeLength="80.50" waitingTime="0.00" waitingCount="0" stopTime="0.00" timeLoss="3.18" rerouteNo="0" devices="tripinfo_51" vType="DEFAULT_VEHTYPE" speedFactor="0.96" vaporized=""/>
    <tripinfo id="0" depart="0.00" departLane="97_4way_E07to4way_E06_0" departPos="5.10" departSpeed="0.00" departDelay="0.00" arrival="36.00" arrivalLane="32_3way_D05to4way_D04_0" arrivalPos="85.60" arrivalSpeed="13.37" duration="36.00" routeLength="374.93" waitingTime="0.00" waitingCount="0" stopTime="0.00" timeLoss="7.37" rerouteNo="0" devices="tripinfo_0" vType="DEFAULT_VEHTYPE" speedFactor="1.01" vaporized=""/>
    <tripinfo id="65" depart="27.00" departLane="83_4way_D07to4way_D06_0" departPos="5.10" departSpeed="0.00" departDelay="0.35" arrival="36.00" arrivalLane="83_4way_D07to4way_D06_0" arrivalPos="85.60" arrivalSpeed="12.41" duration="9.00" routeLength="80.50" waitingTime="0.00" waitingCount="0" stopTime="0.00" timeLoss="2.87" rerouteNo="0" devices="tripinfo_65" vType="DEFAULT_VEHTYPE" speedFactor="0.95" vaporized=""/>
    <tripinfo id="73" depart="30.00" departLane="47_4way_F09to3way_F10_0" departPos="5.10" departSpeed="0.00" departDelay="0.07" arrival="40.00" arrivalLane="47_4way_F09to3way_F10_0" arrivalPos="85.60" arrivalSpeed="10.45" duration="10.00" routeLength="80.50" waitingTime="0.00" waitingCount="0" stopTime="0.00" timeLoss="2.83" rerouteNo="0" devices="tripinfo_73" vType="DEFAULT_VEHTYPE" speedFactor="0.84" vaporized=""/>
    <tripinfo id="77" depart="32.00" departLane="11_3way_A08to4way_B08_0" departPos="5.10" departSpeed="0.00" departDelay="0.43" arrival="41.00" arrivalLane="11_3way_A08to4way_B08_0" arrivalPos="85.60" arrivalSpeed="14.03" duration="9.00" routeLength="80.50" waitingTime="0.00" waitingCount="0" stopTime="0.00" timeLoss="3.33" rerouteNo="0" devices="tripinfo_77" vType="DEFAULT_VEHTYPE" speedFactor="1.10" vaporized=""/>
    <tripinfo id="80" depart="33.00" departLane="119_4way_F08to4way_G08_0" departPos="5.10" departSpeed="0.00" departDelay="0.20" arrival="42.00" arrivalLane="119_4way_F08to4way_G08_0" arrivalPos="85.60" arrivalSpeed="14.80" duration="9.00" routeLength="80.50" waitingTime="0.00" waitingCount="0" stopTime="0.00" timeLoss="3.18" rerouteNo="0" devices="tripinfo_80" vType="DEFAULT_VEHTYPE" speedFactor="1.09" vaporized=""/>
    <tripinfo id="81" depart="34.00" departLane="3_4way_B04to3way_A04_0" departPos="5.10" departSpeed="0.00" departDelay="0.79" arrival="43.00" arrivalLane="3_4way_B04to3way_A04_0" arrivalPos="85.60" arrivalSpeed="13.05" duration="9.00" routeLength="80.50" waitingTime="0.00" waitingCount="0" stopTime="0.00" timeLoss="2.74" rerouteNo="0" devices="tripinfo_81" vType="DEFAULT_VEHTYPE" speedFactor="0.97" vaporized=""/>
    <tripinfo id="63" depart="29.00" departLane="74_4way_B09to4way_C09_0" departPos="5.10" departSpeed="0.00" departDelay="3.17" arrival="45.00" arrivalLane="79_4way_C09to4way_D09_0" arrivalPos="85.60" arrivalSpeed="13.97" duration="16.00" routeLength="180.50" waitingTime="0.00" waitingCount="0" stopTime="0.00" timeLoss="3.47" rerouteNo="0" devices="tripinfo_63" vType="DEFAULT_VEHTYPE" speedFactor="1.04" vaporized=""/>
    <tripinfo id="70" depart="29.00" departLane="95_4way_E06to4way_E05_0" departPos="5.10" departSpeed="0.00" departDelay="0.30" arrival="47.00" arrivalLane="96_4way_E05to4way_F05_0" arrivalPos="85.60" arrivalSpeed="14.86" duration="18.00" routeLength="175.13" waitingTime="0.00" waitingCount="0" stopTime="0.00" timeLoss="5.77" rerouteNo="0" devices="tripinfo_70" vType="DEFAULT_VEHTYPE" speedFactor="1.12" vaporized=""/>
    <tripinfo id="79" depart="33.00" departLane="103_4way_F09to4way_E09_0" departPos="5.10" departSpeed="0.00" departDelay="0.61" arrival="60.00" arrivalLane="99_4way_E08to4way_E07_0" arrivalPos="85.60" arrivalSpeed="13.49" duration="27.00" routeLength="275.13" waitingTime="0.00" waitingCount="0" stopTime="0.00" timeLoss="5.92" rerouteNo="0" devices="tripinfo_79" vType="DEFAULT_VEHTYPE" speedFactor="1.03" vaporized=""/>
    <tripinfo id="72" depart="30.00" departLane="120_4way_G09to4way_F09_0" departPos="5.10" departSpeed="0.00" departDelay="0.48" arrival="61.00" arrivalLane="99_4way_E08to4way_E07_0" arrivalPos="85.60" arrivalSpeed="15.65" duration="31.00" routeLength="375.13" waitingTime="0.00" waitingCount="0" stopTime="0.00" timeLoss="6.96" rerouteNo="0" devices="tripinfo_72" vType="DEFAULT_VEHTYPE" speedFactor="1.19" vaporized=""/>
    <tripinfo id="85" depart="35.00" departLane="61_3way_H05to4way_G05_0" departPos="5.10" departSpeed="0.00" departDelay="0.15" arrival="61.00" arrivalLane="110_4way_F05to4way_F04_0" arrivalPos="85.60" arrivalSpeed="14.34" duration="26.00" routeLength="275.13" waitingTime="0.00" waitingCount="0" stopTime="0.00" timeLoss="6.02" rerouteNo="0" devices="tripinfo_85" vType="DEFAULT_VEHTYPE" speedFactor="1.07" vaporized=""/>
    <tripinfo id="74" depart="31.00" departLane="89_4way_D09to4way_E09_0" departPos="5.10" departSpeed="0.00" departDelay="0.66" arrival="62.00" arrivalLane="51_4way_G09to3way_G10_0" arrivalPos="85.60" arrivalSpeed="15.03" duration="31.00" routeLength="375.13" waitingTime="0.00" waitingCount="0" stopTime="0.00" timeLoss="6.03" rerouteNo="0" devices="tripinfo_74" vType="DEFAULT_VEHTYPE" speedFactor="1.12" vaporized=""/>
    <tripinfo id="82" depart="34.00" departLane="68_3way_H09to4way_G09_0" departPos="5.10" departSpeed="0.00" departDelay="0.38" arrival="64.00" arrivalLane="101_4way_E09to4way_E08_0" arrivalPos="85.60" arrivalSpeed="16.24" duration="30.00" routeLength="375.13" waitingTime="0.00" waitingCount="0" stopTime="0.00" timeLoss="6.35" rerouteNo="0" devices="tripinfo_82" vType="DEFAULT_VEHTYPE" speedFactor="1.21" vaporized=""/>
    <tripinfo id="66" depart="28.00" departLane="91_4way_E03to4way_E04_0" departPos="5.10" departSpeed="0.00" departDelay="0.94" arrival="66.00" arrivalLane="33_3way_D05to4way_D06_0" arrivalPos="85.60" arrivalSpeed="12.50" duration="38.00" routeLength="374.92" waitingTime="0.00" waitingCount="0" stopTime="0.00" timeLoss="7.38" rerouteNo="0" devices="tripinfo_66" vType="DEFAULT_VEHTYPE" speedFactor="0.94" vaporized=""/>
    <tripinfo id="116" depart="48.00" departLane="24_3way_C06to4way_B06_0" departPos="5.10" departSpeed="0.00" departDelay="0.44" arrival="66.00" arrivalLane="17_4way_B06to3way_B05_0" arrivalPos="85.60" arrivalSpeed="14.50" duration="18.00" routeLength="175.13" waitingTime="0.00" waitingCount="0" stopTime="0.00" timeLoss="5.58" rerouteNo="0" devices="tripinfo_116" vType="DEFAULT_VEHTYPE" speedFactor="1.11" vaporized=""/>
    <tripinfo id="28" depart="12.00" departLane="27_3way_C10to3way_D10_0" departPos="5.10" departSpeed="0.00" departDelay="0.52" arrival="70.00" arrivalLane="46_3way_F10to3way_G10_0" arrivalPos="85.60" arrivalSpeed="6.20" duration="58.00" routeLength="380.50" waitingTime="22.00" waitingCount="1" stopTime="0.00" timeLoss="31.95" rerouteNo="0" devices="tripinfo_28" vType="DEFAULT_VEHTYPE" speedFactor="1.06" vaporized=""/>
    <tripinfo id="147" depart="61.00" departLane="127_4way_G07to4way_G08_0" departPos="5.10" departSpeed="0.00" departDelay="0.73" arrival="70.00" arrivalLane="127_4way_G07to4way_G08_0" arrivalPos="85.60" arrivalSpeed="14.07" duration="9.00" routeLength="80.50" waitingTime="0.00" waitingCount="0" stopTime="0.00" timeLoss="3.19" rerouteNo="0" devices="tripinfo_147" vType="DEFAULT_VEHTYPE" speedFactor="1.05" vaporized=""/>
    <tripinfo id="120" depart="50.00" departLane="71_4way_B07to4way_C07_0" departPos="5.10" departSpeed="0.00" departDelay="0.80" arrival="72.00" arrivalLane="86_4way_D07to4way_E07_0" arrivalPos="85.60" arrivalSpeed="15.03" duration="22.00" routeLength="280.50" waitingTime="0.00" waitingCount="0" stopTime="0.00" timeLoss="4.23" rerouteNo="0" devices="tripinfo_120" vType="DEFAULT_VEHTYPE" speedFactor="1.16" vaporized=""/>
    <tripinfo id="130" depart="54.00" departLane="108_4way_F03to4way_F04_0" departPos="5.10" departSpeed="0.00" departDelay="0.70" arrival="73.00" arrivalLane="94_4way_F04to4way_E04_0" arrivalPos="85.60" arrivalSpeed="14.90" duration="19.00" routeLength="175.13" waitingTime="0.00" waitingCount="0" stopTime="0.00" timeLoss="5.82" rerouteNo="0" devices="tripinfo_130" vType="DEFAULT_VEHTYPE" speedFactor="1.09" vaporized=""/>
    <tripinfo id="157" depart="65.00" departLane="102_4way_E08to4way_F08_0" departPos="5.10" departSpeed="0.00" departDelay="0.63" arrival="75.00" arrivalLane="102_4way_E08to4way_F08_0" arrivalPos="85.60" arrivalSpeed="14.15" duration="10.00" routeLength="80.50" waitingTime="0.00" waitingCount="0" stopTime="0.00" timeLoss="3.77" rerouteNo="0" devices="tripinfo_157" vType="DEFAULT_VEHTYPE" speedFactor="1.04" vaporized=""/>
    <tripinfo id="52" depart="22.00" departLane="125_4way_G06to4way_G05_0" departPos="5.10" departSpeed="0.00" departDelay="0.68" arrival="76.00" arrivalLane="61_4way_G05to3way_H05_0" arrivalPos="85.60" arrivalSpeed="15.77" duration="54.00" routeLength="175.13" waitingTime="33.00" waitingCount="1" stopTime="0.00" timeLoss="42.68" rerouteNo="0" devices="tripinfo_52" vType="DEFAULT_VEHTYPE" speedFactor="1.21" vaporized=""/>
    <tripinfo id="118" depart="49.00" departLane="36_3way_D10to4way_D09_0" departPos="5.10" departSpeed="0.00" departDelay="0.62" arrival="76.00" arrivalLane="103_4way_E09to4way_F09_0" arrivalPos="85.60" arrivalSpeed="13.44" duration="27.00" routeLength="275.13" waitingTime="0.00" waitingCount="0" stopTime="0.00" timeLoss="6.54" rerouteNo="0" devices="tripinfo_118" vType="DEFAULT_VEHTYPE" speedFactor="1.02" vaporized=""/>
    <tripinfo id="136" depart="56.00" departLane="111_4way_F04to4way_G04_0" departPos="5.10" departSpeed="0.00" departDelay="0.24" arrival="76.00" arrivalLane="124_4way_G04to4way_G05_0" arrivalPos="85.60" arrivalSpeed="9.89" duration="20.00" routeLength="175.13" waitingTime="0.00" waitingCount="0" stopTime="0.00" timeLoss="7.47" rerouteNo="0" devices="tripinfo_136" vType="DEFAULT_VEHTYPE" speedFactor="1.05" vaporized=""/>
    <tripinfo id="161" depart="67.00" departLane="95_4way_E06to4way_E05_0" departPos="5.10" departSpeed="0.00" departDelay="0.99" arrival="77.00" arrivalLane="95_4way_E06to4way_E05_0" arrivalPos="85.60" arrivalSpeed="12.30" duration="10.00" routeLength="80.50" waitingTime="0.00" waitingCount="0" stopTime="0.00" timeLoss="3.23" rerouteNo="0" devices="tripinfo_161" vType="DEFAULT_VEHTYPE" speedFactor="0.94" vaporized=""/>
    <tripinfo id="15" depart="7.00" departLane="107_4way_F02to4way_G02_0" departPos="5.10" departSpeed="0.00" departDelay="0.85" arrival="78.00" arrivalLane="55_4way_G02to3way_H02_0" arrivalPos="85.60" arrivalSpeed="12.07" duration="71.00" routeLength="180.50" waitingTime="47.00" waitingCount="1" stopTime="0.00" timeLoss="55.52" rerouteNo="0" devices="tripinfo_15" vType="DEFAULT_VEHTYPE" speedFactor="0.89" vaporized=""/>
    <tripinfo id="165" depart="68.00" departLane="106_4way_F02to4way_F03_0" departPos="5.10" departSpeed="0.00" departDelay="0.35" arrival="78.00" arrivalLane="106_4way_F02to4way_F03_0" arrivalPos="85.60" arrivalSpeed="10.68" duration="10.00" routeLength="80.50" waitingTime="0.00" waitingCount="0" stopTime="0.00" timeLoss="2.59" rerouteNo="0" devices="tripinfo_165" vType="DEFAULT_VEHTYPE" speedFactor="0.82" vaporized=""/>
    <tripinfo id="96" depart="40.00" departLane="56_3way_H03to3way_H04_0" departPos="5.10" departSpeed="0.00" departDelay="0.64" arrival="79.00" arrivalLane="58_3way_H04to3way_H05_0" arrivalPos="85.60" arrivalSpeed="12.18" duration="39.00" routeLength="180.50" waitingTime="16.00" waitingCount="1" stopTime="0.00" timeLoss="24.98" rerouteNo="0" devices="tripinfo_96" vType="DEFAULT_VEHTYPE" speedFactor="0.93" vaporized=""/>
    <tripinfo id="113" depart="47.00" departLane="60_3way_H06to3way_H05_0" departPos="5.10" departSpeed="0.00" departDelay="0.67" arrival="79.00" arrivalLane="56_3way_H04to3way_H03_0" arrivalPos="85.60" arrivalSpeed="13.94" duration="32.00" routeLength="280.50" waitingTime="1.00" waitingCount="1" stopTime="0.00" timeLoss="12.52" rerouteNo="0" devices="tripinfo_113" vType="DEFAULT_VEHTYPE" speedFactor="1.06" vaporized=""/>
    <tripinfo id="135" depart="56.00" departLane="125_4way_G06to4way_G05_0" departPos="5.10" departSpeed="0.00" departDelay="0.65" arrival="80.00" arrivalLane="61_4way_G05to3way_H05_0" arrivalPos="85.60" arrivalSpeed="11.76" duration="24.00" routeLength="175.13" waitingTime="0.00" waitingCount="0" stopTime="0.00" timeLoss="8.63" rerouteNo="0" devices="tripinfo_135" vType="DEFAULT_VEHTYPE" speedFactor="0.88" vaporized=""/>
    <tripinfo id="148" depart="61.00" departLane="107_4way_F02to4way_G02_0" departPos="5.10" departSpeed="0.00" departDelay="0.32" arrival="80.00" arrivalLane="122_4way_G02to4way_G03_0" arrivalPos="85.60" arrivalSpeed="13.28" duration="19.00" routeLength="175.13" waitingTime="0.00" waitingCount="0" stopTime="0.00" timeLoss="5.67" rerouteNo="0" devices="tripinfo_148" vType="DEFAULT_VEHTYPE" speedFactor="1.04" vaporized=""/>
    <tripinfo id="154" depart="64.00" departLane="12_3way_B10to3way_A09_0" departPos="5.10" departSpeed="0.00" departDelay="0.86" arrival="82.00" arrivalLane="12_3way_B10to3way_A09_0" arrivalPos="182.40" arrivalSpeed="11.72" duration="18.00" routeLength="177.30" waitingTime="0.00" waitingCount="0" stopTime="0.00" timeLoss="3.65" rerouteNo="0" devices="tripinfo_154" vType="DEFAULT_VEHTYPE" speedFactor="0.93" vaporized=""/>
    <tripinfo id="107" depart="44.00" departLane="114_4way_F06to4way_F07_0" departPos="5.10" departSpeed="0.00" departDelay="0.13" arrival="84.00" arrivalLane="86_4way_E07to4way_D07_0" arrivalPos="85.60" arrivalSpeed="13.90" duration="40.00" routeLength="275.13" waitingTime="11.00" waitingCount="1" stopTime="0.00" timeLoss="19.77" rerouteNo="0" devices="tripinfo_107" vType="DEFAULT_VEHTYPE" speedFactor="1.02" vaporized=""/>
    <tripinfo id="184" depart="76.00" departLane="90_4way_E01to4way_F01_0" departPos="5.10" departSpeed="0.00" departDelay="0.56" arrival="86.00" arrivalLane="90_4way_E01to4way_F01_0" arrivalPos="85.60" arrivalSpeed="12.53" duration="10.00" routeLength="80.50" waitingTime="0.00" waitingCount="0" stopTime="0.00" timeLoss="3.24" rerouteNo="0" devices="tripinfo_184" vType="DEFAULT_VEHTYPE" speedFactor="0.96" vaporized=""/>
    <tripinfo id="179" depart="77.00" departLane="23_3way_C04to4way_D04_0" departPos="5.10" departSpeed="0.00" departDelay="3.61" arrival="87.00" arrivalLane="23_3way_C04to4way_D04_0" arrivalPos="85.60" arrivalSpeed="13.92" duration="10.00" routeLength="80.50" waitingTime="0.00" waitingCount="0" stopTime="0.00" timeLoss="4.02" rerouteNo="0" devices="tripinfo_179" vType="DEFAULT_VEHTYPE" speedFactor="1.09" vaporized=""/>
    <tripinfo id="10" depart="5.00" departLane="111_4way_F04to4way_G04_0" departPos="5.10" departSpeed="0.00" departDelay="0.90" arrival="92.00" arrivalLane="127_4way_G07to4way_G08_0" arrivalPos="85.60" arrivalSpeed="16.32" duration="87.00" routeLength="475.13" waitingTime="41.00" waitingCount="1" stopTime="0.00" timeLoss="56.80" rerouteNo="0" devices="tripinfo_10" vType="DEFAULT_VEHTYPE" speedFactor="1.20" vaporized=""/>
    <tripinfo id="45" depart="19.00" departLane="64_3way_H08to3way_H07_0" departPos="5.10" departSpeed="0.00" departDelay="0.55" arrival="94.00" arrivalLane="52_3way_H02to3way_H01_0" arrivalPos="85.60" arrivalSpeed="12.20" duration="75.00" routeLength="680.50" waitingTime="10.00" waitingCount="1" stopTime="0.00" timeLoss="20.78" rerouteNo="0" devices="tripinfo_45" vType="DEFAULT_VEHTYPE" speedFactor="0.91" vaporized=""/>
    <tripinfo id="206" depart="85.00" departLane="36_4way_D09to3way_D10_0" departPos="5.10" departSpeed="0.00" departDelay="0.54" arrival="94.00" arrivalLane="36_4way_D09to3way_D10_0" arrivalPos="85.60" arrivalSpeed="13.81" duration="9.00" routeLength="80.50" waitingTime="0.00" waitingCount="0" stopTime="0.00" timeLoss="3.42" rerouteNo="0" devices="tripinfo_206" vType="DEFAULT_VEHTYPE" speedFactor="1.04" vaporized=""/>
    <tripinfo id="207" depart="85.00" departLane="128_4way_G09to4way_G08_0" departPos="5.10" departSpeed="0.00" departDelay="0.13" arrival="94.00" arrivalLane="128_4way_G09to4way_G08_0" arrivalPos="85.60" arrivalSpeed="13.63" duration="9.00" routeLength="80.50" waitingTime="0.00" waitingCount="0" stopTime="0.00" timeLoss="3.34" rerouteNo="0" devices="tripinfo_207" vType="DEFAULT_VEHTYPE" speedFactor="1.03" vaporized=""/>
    <tripinfo id="25" depart="11.00" departLane="51_3way_G10to4way_G09_0" departPos="5.10" departSpeed="0.00" departDelay="0.75" arrival="100.00" arrivalLane="62_3way_H07to3way_H06_0" arrivalPos="85.60" arrivalSpeed="15.20" duration="89.00" routeLength="474.92" waitingTime="43.00" waitingCount="1" stopTime="0.00" timeLoss="57.14" rerouteNo="0" devices="tripinfo_25" vType="DEFAULT_VEHTYPE" speedFactor="1.11" vaporized=""/>
    <tripinfo id="114" depart="47.00" departLane="1_3way_A05to3way_A04_0" departPos="5.10" departSpeed="0.00" departDelay="0.26" arrival="107.00" arrivalLane="30_4way_D03to3way_D01_0" arrivalPos="185.60" arrivalSpeed="12.95" duration="60.00" routeLength="677.10" waitingTime="0.00" waitingCount="0" stopTime="0.00" timeLoss="6.86" rerouteNo="0" devices="tripinfo_114" vType="DEFAULT_VEHTYPE" speedFactor="0.94" vaporized=""/>
    <tripinfo id="181" depart="75.00" departLane="71_4way_B07to4way_C07_0" departPos="5.10" departSpeed="0.00" departDelay="0.79" arrival="111.00" arrivalLane="99_4way_E07to4way_E08_0" arrivalPos="85.60" arrivalSpeed="12.57" duration="36.00" routeLength="375.13" waitingTime="0.00" waitingCount="0" stopTime="0.00" timeLoss="6.05" rerouteNo="0" devices="tripinfo_181" vType="DEFAULT_VEHTYPE" speedFactor="0.96" vaporized=""/>
    <tripinfo id="268" depart="110.00" departLane="85_4way_D07to4way_D08_0" departPos="5.10" departSpeed="0.00" departDelay="0.12" arrival="119.00" arrivalLane="85_4way_D07to4way_D08_0" arrivalPos="85.60" arrivalSpeed="15.96" duration="9.00" routeLength="80.50" waitingTime="0.00" waitingCount="0" stopTime="0.00" timeLoss="3.47" rerouteNo="0" devices="tripinfo_268" vType="DEFAULT_VEHTYPE" speedFactor="1.16" vaporized=""/>
    <tripinfo id="261" depart="108.00" departLane="72_4way_B08to4way_B09_0" departPos="5.10" departSpeed="0.00" departDelay="0.99" arrival="124.00" arrivalLane="19_4way_B09to3way_B10_0" arrivalPos="85.60" arrivalSpeed="14.52" duration="16.00" routeLength="180.50" waitingTime="0.00" waitingCount="0" stopTime="0.00" timeLoss="3.32" rerouteNo="0" devices="tripinfo_261" vType="DEFAULT_VEHTYPE" speedFactor="1.10" vaporized=""/>
    <tripinfo id="270" depart="111.00" departLane="112_4way_F05to4way_F06_0" departPos="5.10" departSpeed="0.00" departDelay="0.30" arrival="129.00" arrivalLane="98_4way_F06to4way_E06_0" arrivalPos="85.60" arrivalSpeed="14.81" duration="18.00" routeLength="175.13" waitingTime="0.00" waitingCount="0" stopTime="0.00" timeLoss="5.83" rerouteNo="0" devices="tripinfo_270" vType="DEFAULT_VEHTYPE" speedFactor="1.12" vaporized=""/>
    <tripinfo id="60" depart="26.00" departLane="87_4way_D08to4way_D09_0" departPos="5.10" departSpeed="0.00" departDelay="1.40" arrival="130.00" arrivalLane="74_4way_C09to4way_B09_0" arrivalPos="85.60" arrivalSpeed="4.52" duration="104.00" routeLength="275.13" waitingTime="73.00" waitingCount="1" stopTime="0.00" timeLoss="83.24" rerouteNo="0" devices="tripinfo_60" vType="DEFAULT_VEHTYPE" speedFactor="1.00" vaporized=""/>
    <tripinfo id="174" depart="72.00" departLane="74_4way_C09to4way_B09_0" departPos="5.10" departSpeed="0.00" departDelay="0.66" arrival="133.00" arrivalLane="74_4way_C09to4way_B09_0" arrivalPos="85.60" arrivalSpeed="8.07" duration="61.00" routeLength="80.50" waitingTime="45.00" waitingCount="1" stopTime="0.00" timeLoss="54.26" rerouteNo="0" devices="tripinfo_174" vType="DEFAULT_VEHTYPE" speedFactor="0.92" vaporized=""/>
    <tripinfo id="224" depart="92.00" departLane="60_3way_H05to3way_H06_0" departPos="5.10" departSpeed="0.00" departDelay="0.16" arrival="133.00" arrivalLane="63_3way_H06to4way_G06_0" arrivalPos="85.60" arrivalSpeed="8.60" duration="41.00" routeLength="175.13" waitingTime="15.00" waitingCount="1" stopTime="0.00" timeLoss="26.36" rerouteNo="0" devices="tripinfo_224" vType="DEFAULT_VEHTYPE" speedFactor="0.92" vaporized=""/>
    <tripinfo id="175" depart="72.00" departLane="34_4way_E05to3way_D05_0" departPos="5.10" departSpeed="0.00" departDelay="0.25" arrival="137.00" arrivalLane="80_4way_D04to4way_D03_0" arrivalPos="85.60" arrivalSpeed="12.71" duration="65.00" routeLength="275.13" waitingTime="33.00" waitingCount="1" stopTime="0.00" timeLoss="43.63" rerouteNo="0" devices="tripinfo_175" vType="DEFAULT_VEHTYPE" speedFactor="1.00" vaporized=""/>
    <tripinfo id="182" depart="75.00" departLane="93_4way_E05to4way_E04_0" departPos="5.10" departSpeed="0.00" departDelay="0.38" arrival="137.00" arrivalLane="109_4way_F03to4way_G03_0" arrivalPos="85.60" arrivalSpeed="11.05" duration="62.00" routeLength="375.13" waitingTime="18.00" waitingCount="1" stopTime="0.00" timeLoss="29.37" rerouteNo="0" devices="tripinfo_182" vType="DEFAULT_VEHTYPE" speedFactor="0.86" vaporized=""/>
    <tripinfo id="315" depart="130.00" departLane="27_3way_C10to3way_D10_0" departPos="5.10" departSpeed="0.00" departDelay="0.85" arrival="140.00" arrivalLane="27_3way_C10to3way_D10_0" arrivalPos="85.60" arrivalSpeed="11.86" duration="10.00" routeLength="80.50" waitingTime="0.00" waitingCount="0" stopTime="0.00" timeLoss="2.84" rerouteNo="0" devices="tripinfo_315" vType="DEFAULT_VEHTYPE" speedFactor="0.92" vaporized=""/>
    <tripinfo id="102" depart="42.00" departLane="122_4way_G02to4way_G03_0" departPos="5.10" departSpeed="0.00" departDelay="0.18" arrival="141.00" arrivalLane="81_4way_E03to4way_D03_0" arrivalPos="85.60" arrivalSpeed="13.67" duration="99.00" routeLength="375.13" waitingTime="49.00" waitingCount="2" stopTime="0.00" timeLoss="70.25" rerouteNo="0" devices="tripinfo_102" vType="DEFAULT_VEHTYPE" speedFactor="0.99" vaporized=""/>
    <tripinfo id="211" depart="87.00" departLane="52_3way_H01to3way_H02_0" departPos="5.10" departSpeed="0.00" departDelay="0.49" arrival="142.00" arrivalLane="109_4way_G03to4way_F03_0" arrivalPos="85.60" arrivalSpeed="11.88" duration="55.00" routeLength="375.13" waitingTime="14.00" waitingCount="1" stopTime="0.00" timeLoss="29.77" rerouteNo="0" devices="tripinfo_211" vType="DEFAULT_VEHTYPE" speedFactor="1.12" vaporized=""/>
    <tripinfo id="299" depart="123.00" departLane="76_4way_C07to4way_D07_0" departPos="5.10" departSpeed="0.00" departDelay="0.41" arrival="143.00" arrivalLane="85_4way_D07to4way_D08_0" arrivalPos="85.60" arrivalSpeed="12.60" duration="20.00" routeLength="175.13" waitingTime="0.00" waitingCount="0" stopTime="0.00" timeLoss="5.63" rerouteNo="0" devices="tripinfo_299" vType="DEFAULT_VEHTYPE" speedFactor="0.91" vaporized=""/>
    <tripinfo id="3" depart="2.00" departLane="122_4way_G02to4way_G03_0" departPos="5.10" departSpeed="0.00" departDelay="0.77" arrival="144.00" arrivalLane="21_4way_D03to3way_C03_0" arrivalPos="85.60" arrivalSpeed="13.70" duration="142.00" routeLength="475.13" waitingTime="90.00" waitingCount="2" stopTime="0.00" timeLoss="108.05" rerouteNo="0" devices="tripinfo_3" vType="DEFAULT_VEHTYPE" speedFactor="1.04" vaporized=""/>
    <tripinfo id="132" depart="55.00" departLane="75_4way_C07to4way_C08_0" departPos="5.10" departSpeed="0.00" departDelay="0.88" arrival="144.00" arrivalLane="11_4way_B08to3way_A08_0" arrivalPos="85.60" arrivalSpeed="12.62" duration="89.00" routeLength="275.13" waitingTime="57.00" waitingCount="1" stopTime="0.00" timeLoss="68.03" rerouteNo="0" devices="tripinfo_132" vType="DEFAULT_VEHTYPE" speedFactor="0.98" vaporized=""/>
    <tripinfo id="329" depart="135.00" departLane="70_4way_B07to4way_B08_0" departPos="5.10" departSpeed="0.00" departDelay="0.11" arrival="145.00" arrivalLane="70_4way_B07to4way_B08_0" arrivalPos="85.60" arrivalSpeed="13.27" duration="10.00" routeLength="80.50" waitingTime="0.00" waitingCount="0" stopTime="0.00" timeLoss="3.81" rerouteNo="0" devices="tripinfo_329" vType="DEFAULT_VEHTYPE" speedFactor="1.02" vaporized=""/>
    <tripinfo id="69" depart="29.00" departLane="122_4way_G02to4way_G03_0" departPos="5.10" departSpeed="0.00" departDelay="0.71" arrival="146.00" arrivalLane="21_4way_D03to3way_C03_0" arrivalPos="85.60" arrivalSpeed="14.00" duration="117.00" routeLength="475.13" waitingTime="61.00" waitingCount="2" stopTime="0.00" timeLoss="82.47" rerouteNo="0" devices="tripinfo_69" vType="DEFAULT_VEHTYPE" speedFactor="1.04" vaporized=""/>
    <tripinfo id="26" depart="11.00" departLane="57_3way_H03to4way_G03_0" departPos="5.10" departSpeed="0.00" departDelay="0.34" arrival="148.00" arrivalLane="92_4way_F03to4way_E03_0" arrivalPos="85.60" arrivalSpeed="10.74" duration="137.00" routeLength="280.50" waitingTime="104.00" waitingCount="1" stopTime="0.00" timeLoss="111.18" rerouteNo="0" devices="tripinfo_26" vType="DEFAULT_VEHTYPE" speedFactor="0.81" vaporized=""/>
    <tripinfo id="320" depart="132.00" departLane="91_4way_E03to4way_E04_0" departPos="5.10" departSpeed="0.00" departDelay="0.80" arrival="148.00" arrivalLane="93_4way_E04to4way_E05_0" arrivalPos="85.60" arrivalSpeed="13.23" duration="16.00" routeLength="180.50" waitingTime="0.00" waitingCount="0" stopTime="0.00" timeLoss="4.03" rerouteNo="0" devices="tripinfo_320" vType="DEFAULT_VEHTYPE" speedFactor="1.09" vaporized=""/>
    <tripinfo id="104" depart="43.00" departLane="57_3way_H03to4way_G03_0" departPos="5.10" departSpeed="0.00" departDelay="0.36" arrival="149.00" arrivalLane="92_4way_F03to4way_E03_0" arrivalPos="85.60" arrivalSpeed="12.31" duration="106.00" routeLength="280.50" waitingTime="73.00" waitingCount="1" stopTime="0.00" timeLoss="86.47" rerouteNo="0" devices="tripinfo_104" vType="DEFAULT_VEHTYPE" speedFactor="1.04" vaporized=""/>
    <tripinfo id="67" depart="28.00" departLane="21_3way_C03to4way_D03_0" departPos="5.10" departSpeed="0.00" departDelay="0.53" arrival="150.00" arrivalLane="40_4way_E03to3way_E02_0" arrivalPos="85.60" arrivalSpeed="11.92" duration="122.00" routeLength="280.30" waitingTime="87.00" waitingCount="2" stopTime="0.00" timeLoss="99.08" rerouteNo="0" devices="tripinfo_67" vType="DEFAULT_VEHTYPE" speedFactor="0.95" vaporized=""/>
    <tripinfo id="173" depart="71.00" departLane="4_3way_A06to3way_A05_0" departPos="5.10" departSpeed="0.00" departDelay="0.07" arrival="151.00" arrivalLane="40_4way_E03to3way_E02_0" arrivalPos="85.60" arrivalSpeed="15.04" duration="80.00" routeLength="777.10" waitingTime="14.00" waitingCount="2" stopTime="0.00" timeLoss="29.88" rerouteNo="0" devices="tripinfo_173" vType="DEFAULT_VEHTYPE" speedFactor="1.13" vaporized=""/>
    <tripinfo id="245" depart="101.00" departLane="69_4way_B07to4way_B06_0" departPos="5.10" departSpeed="0.00" departDelay="0.55" arrival="153.00" arrivalLane="22_4way_B04to3way_C04_0" arrivalPos="85.60" arrivalSpeed="14.79" duration="52.00" routeLength="375.13" waitingTime="11.00" waitingCount="1" stopTime="0.00" timeLoss="26.44" rerouteNo="0" devices="tripinfo_245" vType="DEFAULT_VEHTYPE" speedFactor="1.11" vaporized=""/>