<?xml version="1.0" encoding="UTF-8"?>

<!-- generated on 2023-07-28 16:20:49 by Eclipse SUMO sumo Version 1.12.0
<configuration xmlns:xsi="http://www.w3.org/2001/XMLSchema-instance" xsi:noNamespaceSchemaLocation="http://sumo.dlr.de/xsd/sumoConfiguration.xsd">

    <input>
        <net-file value="../../data_generation/sq.net.xml"/>
        <route-files value="../../data_generation/sq.rou.xml"/>
    </input>

    <output>
        <tripinfo-output value="tripinfo.xml"/>
        <statistic-output value="statistic.xml"/>
    </output>

    <time>
        <begin value="0"/>
        <end value="3600"/>
    </time>

    <processing>
        <time-to-teleport value="-1"/>
    </processing>

    <traci_server>
        <remote-port value="40455"/>
    </traci_server>

    <random_number>
        <seed value="1395"/>
    </random_number>

    <gui_only>
        <gui-settings-file value="../../data_generation/view_HY_0402.xml"/>
    </gui_only>

</configuration>
-->

<tripinfos xmlns:xsi="http://www.w3.org/2001/XMLSchema-instance" xsi:noNamespaceSchemaLocation="http://sumo.dlr.de/xsd/tripinfo_file.xsd">
    <tripinfo id="7" depart="2.00" departLane="34_3way_7to3way_6_0" departPos="5.10" departSpeed="0.00" departDelay="0.70" arrival="12.00" arrivalLane="34_3way_7to3way_6_0" arrivalPos="85.60" arrivalSpeed="13.16" duration="10.00" routeLength="80.50" waitingTime="0.00" waitingCount="0" stopTime="0.00" timeLoss="3.25" rerouteNo="0" devices="tripinfo_7" vType="DEFAULT_VEHTYPE" speedFactor="0.95" vaporized=""/>
    <tripinfo id="9" depart="2.00" departLane="104_4way_42to4way_41_0" departPos="5.10" departSpeed="0.00" departDelay="0.33" arrival="12.00" arrivalLane="104_4way_42to4way_41_0" arrivalPos="85.60" arrivalSpeed="12.23" duration="10.00" routeLength="80.50" waitingTime="0.00" waitingCount="0" stopTime="0.00" timeLoss="2.68" rerouteNo="0" devices="tripinfo_9" vType="DEFAULT_VEHTYPE" speedFactor="0.91" vaporized=""/>
    <tripinfo id="38" depart="8.00" departLane="21_4way_37to3way_36_0" departPos="5.10" departSpeed="0.00" departDelay="0.97" arrival="18.00" arrivalLane="21_4way_37to3way_36_0" arrivalPos="85.60" arrivalSpeed="13.47" duration="10.00" routeLength="80.50" waitingTime="0.00" waitingCount="0" stopTime="0.00" timeLoss="3.31" rerouteNo="0" devices="tripinfo_38" vType="DEFAULT_VEHTYPE" speedFactor="1.00" vaporized=""/>
    <tripinfo id="51" depart="10.00" departLane="88_4way_30to4way_39_0" departPos="5.10" departSpeed="0.00" departDelay="0.56" arrival="21.00" arrivalLane="88_4way_30to4way_39_0" arrivalPos="85.60" arrivalSpeed="9.57" duration="11.00" routeLength="80.50" waitingTime="0.00" waitingCount="0" stopTime="0.00" timeLoss="2.33" rerouteNo="0" devices="tripinfo_51" vType="DEFAULT_VEHTYPE" speedFactor="0.74" vaporized=""/>
    <tripinfo id="16" depart="3.00" departLane="62_4way_21to4way_12_0" departPos="5.10" departSpeed="0.00" departDelay="0.04" arrival="23.00" arrivalLane="59_4way_12to4way_11_0" arrivalPos="85.60" arrivalSpeed="12.14" duration="20.00" routeLength="175.13" waitingTime="0.00" waitingCount="0" stopTime="0.00" timeLoss="5.45" rerouteNo="0" devices="tripinfo_16" vType="DEFAULT_VEHTYPE" speedFactor="0.90" vaporized=""/>
    <tripinfo id="71" depart="14.00" departLane="6_4way_16to3way_17_0" departPos="5.10" departSpeed="0.00" departDelay="0.86" arrival="23.00" arrivalLane="6_4way_16to3way_17_0" arrivalPos="85.60" arrivalSpeed="14.82" duration="9.00" routeLength="80.50" waitingTime="0.00" waitingCount="0" stopTime="0.00" timeLoss="3.58" rerouteNo="0" devices="tripinfo_71" vType="DEFAULT_VEHTYPE" speedFactor="1.13" vaporized=""/>
    <tripinfo id="35" depart="7.00" departLane="23_3way_4to4way_13_0" departPos="5.10" departSpeed="0.00" departDelay="0.52" arrival="26.00" arrivalLane="63_4way_13to4way_14_0" arrivalPos="85.60" arrivalSpeed="12.60" duration="19.00" routeLength="175.13" waitingTime="0.00" waitingCount="0" stopTime="0.00" timeLoss="4.53" rerouteNo="0" devices="tripinfo_35" vType="DEFAULT_VEHTYPE" speedFactor="0.94" vaporized=""/>
    <tripinfo id="65" depart="13.00" departLane="88_4way_39to4way_30_0" departPos="5.10" departSpeed="0.00" departDelay="0.97" arrival="29.00" arrivalLane="75_4way_30to4way_21_0" arrivalPos="85.60" arrivalSpeed="15.75" duration="16.00" routeLength="180.50" waitingTime="0.00" waitingCount="0" stopTime="0.00" timeLoss="4.23" rerouteNo="0" devices="tripinfo_65" vType="DEFAULT_VEHTYPE" speedFactor="1.20" vaporized=""/>
    <tripinfo id="13" depart="3.00" departLane="95_4way_34to4way_43_0" departPos="5.10" departSpeed="0.00" departDelay="0.59" arrival="30.00" arrivalLane="31_4way_52to3way_53_0" arrivalPos="85.60" arrivalSpeed="13.27" duration="27.00" routeLength="275.13" waitingTime="0.00" waitingCount="0" stopTime="0.00" timeLoss="5.59" rerouteNo="0" devices="tripinfo_13" vType="DEFAULT_VEHTYPE" speedFactor="0.98" vaporized=""/>
    <tripinfo id="81" depart="15.00" departLane="2_3way_9to3way_1_0" departPos="5.10" departSpeed="0.00" departDelay="0.01" arrival="32.00" arrivalLane="2_3way_9to3way_1_0" arrivalPos="188.80" arrivalSpeed="14.42" duration="17.00" routeLength="183.70" waitingTime="0.00" waitingCount="0" stopTime="0.00" timeLoss="3.59" rerouteNo="0" devices="tripinfo_81" vType="DEFAULT_VEHTYPE" speedFactor="1.05" vaporized=""/>
    <tripinfo id="116" depart="22.00" departLane="57_4way_11to4way_10_0" departPos="5.10" departSpeed="0.00" departDelay="0.53" arrival="32.00" arrivalLane="57_4way_11to4way_10_0" arrivalPos="85.60" arrivalSpeed="13.72" duration="10.00" routeLength="80.50" waitingTime="0.00" waitingCount="0" stopTime="0.00" timeLoss="3.44" rerouteNo="0" devices="tripinfo_116" vType="DEFAULT_VEHTYPE" speedFactor="0.99" vaporized=""/>
    <tripinfo id="124" depart="23.00" departLane="79_4way_23to4way_32_0" departPos="5.10" departSpeed="0.00" departDelay="0.05" arrival="32.00" arrivalLane="79_4way_23to4way_32_0" arrivalPos="85.60" arrivalSpeed="14.44" duration="9.00" routeLength="80.50" waitingTime="0.00" waitingCount="0" stopTime="0.00" timeLoss="3.19" rerouteNo="0" devices="tripinfo_124" vType="DEFAULT_VEHTYPE" speedFactor="1.11" vaporized=""/>
    <tripinfo id="96" depart="19.00" departLane="45_3way_74to3way_75_0" departPos="5.10" departSpeed="0.00" departDelay="1.23" arrival="37.00" arrivalLane="47_3way_75to3way_76_0" arrivalPos="85.60" arrivalSpeed="13.22" duration="18.00" routeLength="180.50" waitingTime="0.00" waitingCount="0" stopTime="0.00" timeLoss="3.68" rerouteNo="0" devices="tripinfo_96" vType="DEFAULT_VEHTYPE" speedFactor="0.95" vaporized=""/>
    <tripinfo id="28" depart="6.00" departLane="12_3way_26to3way_35_0" departPos="5.10" departSpeed="0.00" departDelay="0.82" arrival="38.00" arrivalLane="30_3way_53to3way_62_0" arrivalPos="85.60" arrivalSpeed="13.50" duration="32.00" routeLength="380.50" waitingTime="0.00" waitingCount="0" stopTime="0.00" timeLoss="4.47" rerouteNo="0" devices="tripinfo_28" vType="DEFAULT_VEHTYPE" speedFactor="1.03" vaporized=""/>
    <tripinfo id="147" depart="30.00" departLane="108_4way_43to4way_52_0" departPos="5.10" departSpeed="0.00" departDelay="2.79" arrival="40.00" arrivalLane="108_4way_43to4way_52_0" arrivalPos="85.60" arrivalSpeed="12.60" duration="10.00" routeLength="80.50" waitingTime="0.00" waitingCount="0" stopTime="0.00" timeLoss="3.42" rerouteNo="0" devices="tripinfo_147" vType="DEFAULT_VEHTYPE" speedFactor="0.97" vaporized=""/>
    <tripinfo id="160" depart="30.00" departLane="103_4way_49to4way_40_0" departPos="5.10" departSpeed="0.00" departDelay="0.38" arrival="40.00" arrivalLane="103_4way_49to4way_40_0" arrivalPos="85.60" arrivalSpeed="11.13" duration="10.00" routeLength="80.50" waitingTime="0.00" waitingCount="0" stopTime="0.00" timeLoss="3.16" rerouteNo="0" devices="tripinfo_160" vType="DEFAULT_VEHTYPE" speedFactor="0.88" vaporized=""/>
    <tripinfo id="85" depart="16.00" departLane="49_3way_76to3way_77_0" departPos="5.10" departSpeed="0.00" departDelay="0.27" arrival="42.00" arrivalLane="131_4way_68to4way_59_0" arrivalPos="85.60" arrivalSpeed="13.07" duration="26.00" routeLength="275.13" waitingTime="0.00" waitingCount="0" stopTime="0.00" timeLoss="7.76" rerouteNo="0" devices="tripinfo_85" vType="DEFAULT_VEHTYPE" speedFactor="1.12" vaporized=""/>
    <tripinfo id="113" depart="21.00" departLane="49_3way_77to3way_76_0" departPos="5.10" departSpeed="0.00" departDelay="0.08" arrival="44.00" arrivalLane="45_3way_75to3way_74_0" arrivalPos="85.60" arrivalSpeed="14.85" duration="23.00" routeLength="280.50" waitingTime="0.00" waitingCount="0" stopTime="0.00" timeLoss="4.07" rerouteNo="0" devices="tripinfo_113" vType="DEFAULT_VEHTYPE" speedFactor="1.10" vaporized=""/>
    <tripinfo id="133" depart="25.00" departLane="120_4way_51to4way_60_0" departPos="5.10" departSpeed="0.00" departDelay="0.38" arrival="44.00" arrivalLane="132_4way_60to4way_61_0" arrivalPos="85.60" arrivalSpeed="13.59" duration="19.00" routeLength="175.13" waitingTime="0.00" waitingCount="0" stopTime="0.00" timeLoss="5.87" rerouteNo="0" devices="tripinfo_133" vType="DEFAULT_VEHTYPE" speedFactor="1.01" vaporized=""/>
    <tripinfo id="103" depart="20.00" departLane="51_3way_77to3way_78_0" departPos="5.10" departSpeed="0.00" departDelay="0.93" arrival="45.00" arrivalLane="55_3way_79to4way_70_0" arrivalPos="85.60" arrivalSpeed="14.95" duration="25.00" routeLength="275.13" waitingTime="0.00" waitingCount="0" stopTime="0.00" timeLoss="6.38" rerouteNo="0" devices="tripinfo_103" vType="DEFAULT_VEHTYPE" speedFactor="1.15" vaporized=""/>
    <tripinfo id="46" depart="9.00" departLane="11_3way_2to4way_11_0" departPos="5.10" departSpeed="0.00" departDelay="0.48" arrival="49.00" arrivalLane="98_4way_38to4way_39_0" arrivalPos="85.60" arrivalSpeed="14.39" duration="40.00" routeLength="475.13" waitingTime="0.00" waitingCount="0" stopTime="0.00" timeLoss="6.41" rerouteNo="0" devices="tripinfo_46" vType="DEFAULT_VEHTYPE" speedFactor="1.04" vaporized=""/>
    <tripinfo id="100" depart="20.00" departLane="28_3way_6to3way_5_0" departPos="5.10" departSpeed="0.00" departDelay="1.49" arrival="49.00" arrivalLane="10_3way_3to3way_2_0" arrivalPos="85.60" arrivalSpeed="13.86" duration="29.00" routeLength="380.50" waitingTime="0.00" waitingCount="0" stopTime="0.00" timeLoss="5.75" rerouteNo="0" devices="tripinfo_100" vType="DEFAULT_VEHTYPE" speedFactor="1.20" vaporized=""/>
    <tripinfo id="126" depart="24.00" departLane="88_4way_39to4way_30_0" departPos="5.10" departSpeed="0.00" departDelay="0.68" arrival="49.00" arrivalLane="62_4way_21to4way_12_0" arrivalPos="85.60" arrivalSpeed="12.89" duration="25.00" routeLength="280.50" waitingTime="0.00" waitingCount="0" stopTime="0.00" timeLoss="4.33" rerouteNo="0" devices="tripinfo_126" vType="DEFAULT_VEHTYPE" speedFactor="1.01" vaporized=""/>
    <tripinfo id="205" depart="40.00" departLane="134_4way_70to4way_61_0" departPos="5.10" departSpeed="0.00" departDelay="2.05" arrival="50.00" arrivalLane="134_4way_70to4way_61_0" arrivalPos="85.60" arrivalSpeed="11.31" duration="10.00" routeLength="80.50" waitingTime="0.00" waitingCount="0" stopTime="0.00" timeLoss="3.23" rerouteNo="0" devices="tripinfo_205" vType="DEFAULT_VEHTYPE" speedFactor="0.90" vaporized=""/>
    <tripinfo id="110" depart="21.00" departLane="108_4way_43to4way_52_0" departPos="5.10" departSpeed="0.00" departDelay="0.64" arrival="52.00" arrivalLane="55_4way_70to3way_79_0" arrivalPos="85.60" arrivalSpeed="13.91" duration="31.00" routeLength="380.50" waitingTime="0.00" waitingCount="0" stopTime="0.00" timeLoss="4.46" rerouteNo="0" devices="tripinfo_110" vType="DEFAULT_VEHTYPE" speedFactor="1.05" vaporized=""/>
    <tripinfo id="171" depart="34.00" departLane="17_3way_3to4way_12_0" departPos="5.10" departSpeed="0.00" departDelay="2.35" arrival="52.00" arrivalLane="61_4way_12to4way_13_0" arrivalPos="85.60" arrivalSpeed="13.52" duration="18.00" routeLength="175.13" waitingTime="0.00" waitingCount="0" stopTime="0.00" timeLoss="5.32" rerouteNo="0" devices="tripinfo_171" vType="DEFAULT_VEHTYPE" speedFactor="1.04" vaporized=""/>
    <tripinfo id="80" depart="15.00" departLane="94_4way_33to4way_42_0" departPos="5.10" departSpeed="0.00" departDelay="0.19" arrival="57.00" arrivalLane="132_4way_60to4way_61_0" arrivalPos="85.60" arrivalSpeed="9.61" duration="42.00" routeLength="375.13" waitingTime="0.00" waitingCount="0" stopTime="0.00" timeLoss="5.79" rerouteNo="0" devices="tripinfo_80" vType="DEFAULT_VEHTYPE" speedFactor="0.78" vaporized=""/>
    <tripinfo id="202" depart="38.00" departLane="45_3way_74to3way_75_0" departPos="5.10" departSpeed="0.00" departDelay="0.61" arrival="57.00" arrivalLane="47_3way_75to3way_76_0" arrivalPos="85.60" arrivalSpeed="12.35" duration="19.00" routeLength="180.50" waitingTime="0.00" waitingCount="0" stopTime="0.00" timeLoss="3.83" rerouteNo="0" devices="tripinfo_202" vType="DEFAULT_VEHTYPE" speedFactor="0.90" vaporized=""/>
    <tripinfo id="252" depart="48.00" departLane="126_4way_58to4way_57_0" departPos="5.10" departSpeed="0.00" departDelay="1.35" arrival="57.00" arrivalLane="126_4way_58to4way_57_0" arrivalPos="85.60" arrivalSpeed="12.37" duration="9.00" routeLength="80.50" waitingTime="0.00" waitingCount="0" stopTime="0.00" timeLoss="3.06" rerouteNo="0" devices="tripinfo_252" vType="DEFAULT_VEHTYPE" speedFactor="0.98" vaporized=""/>
    <tripinfo id="20" depart="4.00" departLane="22_3way_5to3way_4_0" departPos="5.10" departSpeed="0.00" departDelay="0.30" arrival="58.00" arrivalLane="103_4way_40to4way_49_0" arrivalPos="85.60" arrivalSpeed="11.29" duration="54.00" routeLength="575.13" waitingTime="0.00" waitingCount="0" stopTime="0.00" timeLoss="6.87" rerouteNo="0" devices="tripinfo_20" vType="DEFAULT_VEHTYPE" speedFactor="0.89" vaporized=""/>
    <tripinfo id="257" depart="48.00" departLane="3_4way_10to3way_1_0" departPos="5.10" departSpeed="0.00" departDelay="0.43" arrival="58.00" arrivalLane="3_4way_10to3way_1_0" arrivalPos="85.60" arrivalSpeed="11.30" duration="10.00" routeLength="80.50" waitingTime="0.00" waitingCount="0" stopTime="0.00" timeLoss="2.34" rerouteNo="0" devices="tripinfo_257" vType="DEFAULT_VEHTYPE" speedFactor="0.83" vaporized=""/>
    <tripinfo id="89" depart="17.00" departLane="48_3way_75to4way_66_0" departPos="5.10" departSpeed="0.00" departDelay="0.53" arrival="59.00" arrivalLane="88_4way_39to4way_30_0" arrivalPos="85.60" arrivalSpeed="12.41" duration="42.00" routeLength="480.50" waitingTime="0.00" waitingCount="0" stopTime="0.00" timeLoss="4.51" rerouteNo="0" devices="tripinfo_89" vType="DEFAULT_VEHTYPE" speedFactor="0.93" vaporized=""/>
    <tripinfo id="114" depart="22.00" departLane="11_3way_2to4way_11_0" departPos="5.10" departSpeed="0.00" departDelay="0.90" arrival="60.00" arrivalLane="99_4way_38to4way_47_0" arrivalPos="85.60" arrivalSpeed="13.52" duration="38.00" routeLength="480.50" waitingTime="0.00" waitingCount="0" stopTime="0.00" timeLoss="4.79" rerouteNo="0" devices="tripinfo_114" vType="DEFAULT_VEHTYPE" speedFactor="1.06" vaporized=""/>
    <tripinfo id="266" depart="54.00" departLane="101_4way_39to4way_48_0" departPos="5.10" departSpeed="0.00" departDelay="4.76" arrival="64.00" arrivalLane="101_4way_39to4way_48_0" arrivalPos="85.60" arrivalSpeed="12.69" duration="10.00" routeLength="80.50" waitingTime="0.00" waitingCount="0" stopTime="0.00" timeLoss="3.23" rerouteNo="0" devices="tripinfo_266" vType="DEFAULT_VEHTYPE" speedFactor="0.97" vaporized=""/>
    <tripinfo id="288" depart="54.00" departLane="22_3way_5to3way_4_0" departPos="5.10" departSpeed="0.00" departDelay="0.69" arrival="64.00" arrivalLane="22_3way_5to3way_4_0" arrivalPos="85.60" arrivalSpeed="10.84" duration="10.00" routeLength="80.50" waitingTime="0.00" waitingCount="0" stopTime="0.00" timeLoss="2.28" rerouteNo="0" devices="tripinfo_288" vType="DEFAULT_VEHTYPE" speedFactor="0.82" vaporized=""/>
    <tripinfo id="167" depart="37.00" departLane="16_3way_4to3way_3_0" departPos="5.10" departSpeed="0.00" departDelay="6.09" arrival="67.00" arrivalLane="11_3way_2to4way_11_0" arrivalPos="85.60" arrivalSpeed="11.15" duration="30.00" routeLength="275.13" waitingTime="0.00" waitingCount="0" stopTime="0.00" timeLoss="5.75" rerouteNo="0" devices="tripinfo_167" vType="DEFAULT_VEHTYPE" speedFactor="0.85" vaporized=""/>
    <tripinfo id="313" depart="58.00" departLane="12_3way_26to3way_35_0" departPos="5.10" departSpeed="0.00" departDelay="0.06" arrival="67.00" arrivalLane="12_3way_26to3way_35_0" arrivalPos="85.60" arrivalSpeed="12.39" duration="9.00" routeLength="80.50" waitingTime="0.00" waitingCount="0" stopTime="0.00" timeLoss="2.50" rerouteNo="0" devices="tripinfo_313" vType="DEFAULT_VEHTYPE" speedFactor="0.90" vaporized=""/>
    <tripinfo id="26" depart="5.00" departLane="45_3way_74to3way_75_0" departPos="5.10" departSpeed="0.00" departDelay="0.19" arrival="68.00" arrivalLane="77_4way_31to4way_22_0" arrivalPos="85.60" arrivalSpeed="13.39" duration="63.00" routeLength="775.13" waitingTime="0.00" waitingCount="0" stopTime="0.00" timeLoss="7.95" rerouteNo="0" devices="tripinfo_26" vType="DEFAULT_VEHTYPE" speedFactor="1.03" vaporized=""/>
    <tripinfo id="40" depart="8.00" departLane="43_3way_73to3way_74_0" departPos="5.10" departSpeed="0.00" departDelay="0.60" arrival="68.00" arrivalLane="75_4way_30to4way_21_0" arrivalPos="85.60" arrivalSpeed="13.93" duration="60.00" routeLength="775.13" waitingTime="0.00" waitingCount="0" stopTime="0.00" timeLoss="7.45" rerouteNo="0" devices="tripinfo_40" vType="DEFAULT_VEHTYPE" speedFactor="1.08" vaporized=""/>
    <tripinfo id="70" depart="13.00" departLane="129_4way_58to4way_67_0" departPos="5.10" departSpeed="0.00" departDelay="0.04" arrival="70.00" arrivalLane="138_4way_67to4way_68_0" arrivalPos="85.60" arrivalSpeed="6.12" duration="57.00" routeLength="175.13" waitingTime="31.00" waitingCount="1" stopTime="0.00" timeLoss="38.86" rerouteNo="0" devices="tripinfo_70" vType="DEFAULT_VEHTYPE" speedFactor="0.75" vaporized=""/>
    <tripinfo id="94" depart="18.00" departLane="95_4way_34to4way_43_0" departPos="5.10" departSpeed="0.00" departDelay="0.60" arrival="70.00" arrivalLane="55_4way_70to3way_79_0" arrivalPos="85.60" arrivalSpeed="6.26" duration="52.00" routeLength="480.50" waitingTime="8.00" waitingCount="1" stopTime="0.00" timeLoss="19.90" rerouteNo="0" devices="tripinfo_94" vType="DEFAULT_VEHTYPE" speedFactor="1.08" vaporized=""/>
    <tripinfo id="111" depart="21.00" departLane="52_3way_77to4way_68_0" departPos="5.10" departSpeed="0.00" departDelay="0.45" arrival="70.00" arrivalLane="102_4way_41to4way_40_0" arrivalPos="85.60" arrivalSpeed="8.71" duration="49.00" routeLength="475.13" waitingTime="0.00" waitingCount="0" stopTime="0.00" timeLoss="7.82" rerouteNo="0" devices="tripinfo_111" vType="DEFAULT_VEHTYPE" speedFactor="0.84" vaporized=""/>
    <tripinfo id="148" depart="28.00" departLane="105_4way_41to4way_50_0" departPos="5.10" departSpeed="0.00" departDelay="0.60" arrival="70.00" arrivalLane="139_4way_68to4way_69_0" arrivalPos="85.60" arrivalSpeed="6.04" duration="42.00" routeLength="375.13" waitingTime="5.00" waitingCount="1" stopTime="0.00" timeLoss="16.03" rerouteNo="0" devices="tripinfo_148" vType="DEFAULT_VEHTYPE" speedFactor="1.07" vaporized=""/>
    <tripinfo id="185" depart="35.00" departLane="88_4way_39to4way_30_0" departPos="5.10" departSpeed="0.00" departDelay="0.76" arrival="70.00" arrivalLane="59_4way_12to4way_11_0" arrivalPos="85.60" arrivalSpeed="5.88" duration="35.00" routeLength="375.13" waitingTime="0.00" waitingCount="0" stopTime="0.00" timeLoss="11.46" rerouteNo="0" devices="tripinfo_185" vType="DEFAULT_VEHTYPE" speedFactor="1.18" vaporized=""/>
    <tripinfo id="212" depart="40.00" departLane="109_4way_46to4way_47_0" departPos="5.10" departSpeed="0.00" departDelay="0.76" arrival="70.00" arrivalLane="109_4way_46to4way_47_0" arrivalPos="85.60" arrivalSpeed="5.29" duration="30.00" routeLength="80.50" waitingTime="16.00" waitingCount="1" stopTime="0.00" timeLoss="24.16" rerouteNo="0" devices="tripinfo_212" vType="DEFAULT_VEHTYPE" speedFactor="1.00" vaporized=""/>
    <tripinfo id="307" depart="57.00" departLane="132_4way_60to4way_61_0" departPos="5.10" departSpeed="0.00" departDelay="0.17" arrival="70.00" arrivalLane="132_4way_60to4way_61_0" arrivalPos="85.60" arrivalSpeed="4.48" duration="13.00" routeLength="80.50" waitingTime="0.00" waitingCount="0" stopTime="0.00" timeLoss="7.42" rerouteNo="0" devices="tripinfo_307" vType="DEFAULT_VEHTYPE" speedFactor="1.04" vaporized=""/>
    <tripinfo id="311" depart="59.00" departLane="122_4way_56to4way_55_0" departPos="5.10" departSpeed="0.00" departDelay="1.43" arrival="70.00" arrivalLane="122_4way_56to4way_55_0" arrivalPos="85.60" arrivalSpeed="5.84" duration="11.00" routeLength="80.50" waitingTime="0.00" waitingCount="0" stopTime="0.00" timeLoss="5.29" rerouteNo="0" devices="tripinfo_311" vType="DEFAULT_VEHTYPE" speedFactor="1.04" vaporized=""/>
    <tripinfo id="327" depart="62.00" departLane="84_4way_28to4way_37_0" departPos="5.10" departSpeed="0.00" departDelay="1.47" arrival="71.00" arrivalLane="84_4way_28to4way_37_0" arrivalPos="85.60" arrivalSpeed="12.94" duration="9.00" routeLength="80.50" waitingTime="0.00" waitingCount="0" stopTime="0.00" timeLoss="2.90" rerouteNo="0" devices="tripinfo_327" vType="DEFAULT_VEHTYPE" speedFactor="0.95" vaporized=""/>
    <tripinfo id="27" depart="5.00" departLane="48_3way_75to4way_66_0" departPos="5.10" departSpeed="0.00" departDelay="0.00" arrival="72.00" arrivalLane="59_4way_12to4way_11_0" arrivalPos="85.60" arrivalSpeed="9.71" duration="67.00" routeLength="775.13" waitingTime="0.00" waitingCount="0" stopTime="0.00" timeLoss="11.38" rerouteNo="0" devices="tripinfo_27" vType="DEFAULT_VEHTYPE" speedFactor="1.03" vaporized=""/>
    <tripinfo id="228" depart="43.00" departLane="26_3way_45to3way_54_0" departPos="5.10" departSpeed="0.00" departDelay="0.80" arrival="72.00" arrivalLane="39_3way_63to4way_64_0" arrivalPos="85.60" arrivalSpeed="9.44" duration="29.00" routeLength="275.13" waitingTime="0.00" waitingCount="0" stopTime="0.00" timeLoss="6.78" rerouteNo="0" devices="tripinfo_228" vType="DEFAULT_VEHTYPE" speedFactor="0.92" vaporized=""/>
    <tripinfo id="276" depart="52.00" departLane="120_4way_51to4way_60_0" departPos="5.10" departSpeed="0.00" departDelay="0.91" arrival="72.00" arrivalLane="132_4way_60to4way_61_0" arrivalPos="85.60" arrivalSpeed="8.45" duration="20.00" routeLength="175.13" waitingTime="0.00" waitingCount="0" stopTime="0.00" timeLoss="7.09" rerouteNo="0" devices="tripinfo_276" vType="DEFAULT_VEHTYPE" speedFactor="1.02" vaporized=""/>
    <tripinfo id="0" depart="0.00" departLane="129_4way_67to4way_58_0" departPos="5.10" departSpeed="0.00" departDelay="0.00" arrival="73.00" arrivalLane="61_4way_13to4way_12_0" arrivalPos="85.60" arrivalSpeed="7.82" duration="73.00" routeLength="675.13" waitingTime="11.00" waitingCount="1" stopTime="0.00" timeLoss="23.65" rerouteNo="0" devices="tripinfo_0" vType="DEFAULT_VEHTYPE" speedFactor="1.00" vaporized=""/>
    <tripinfo id="14" depart="3.00" departLane="97_4way_37to4way_46_0" departPos="5.10" departSpeed="0.00" departDelay="0.41" arrival="75.00" arrivalLane="122_4way_55to4way_56_0" arrivalPos="85.60" arrivalSpeed="9.97" duration="72.00" routeLength="275.13" waitingTime="38.00" waitingCount="1" stopTime="0.00" timeLoss="50.05" rerouteNo="0" devices="tripinfo_14" vType="DEFAULT_VEHTYPE" speedFactor="0.95" vaporized=""/>
    <tripinfo id="352" depart="66.00" departLane="122_4way_56to4way_55_0" departPos="5.10" departSpeed="0.00" departDelay="0.84" arrival="75.00" arrivalLane="122_4way_56to4way_55_0" arrivalPos="85.60" arrivalSpeed="15.17" duration="9.00" routeLength="80.50" waitingTime="0.00" waitingCount="0" stopTime="0.00" timeLoss="3.36" rerouteNo="0" devices="tripinfo_352" vType="DEFAULT_VEHTYPE" speedFactor="1.10" vaporized=""/>
    <tripinfo id="60" depart="13.00" departLane="111_4way_48to4way_47_0" departPos="5.10" departSpeed="0.00" departDelay="1.89" arrival="76.00" arrivalLane="109_4way_47to4way_46_0" arrivalPos="85.60" arrivalSpeed="15.24" duration="63.00" routeLength="180.50" waitingTime="42.00" waitingCount="1" stopTime="0.00" timeLoss="51.08" rerouteNo="0" devices="tripinfo_60" vType="DEFAULT_VEHTYPE" speedFactor="1.12" vaporized=""/>
    <tripinfo id="263" depart="49.00" departLane="103_4way_49to4way_40_0" departPos="5.10" departSpeed="0.00" departDelay="0.32" arrival="76.00" arrivalLane="87_4way_31to4way_30_0" arrivalPos="85.60" arrivalSpeed="12.79" duration="27.00" routeLength="275.13" waitingTime="0.00" waitingCount="0" stopTime="0.00" timeLoss="5.77" rerouteNo="0" devices="tripinfo_263" vType="DEFAULT_VEHTYPE" speedFactor="0.99" vaporized=""/>
    <tripinfo id="10" depart="2.00" departLane="130_4way_59to4way_60_0" departPos="5.10" departSpeed="0.00" departDelay="0.15" arrival="77.00" arrivalLane="132_4way_60to4way_61_0" arrivalPos="85.60" arrivalSpeed="13.30" duration="75.00" routeLength="180.50" waitingTime="52.00" waitingCount="1" stopTime="0.00" timeLoss="61.60" rerouteNo="0" devices="tripinfo_10" vType="DEFAULT_VEHTYPE" speedFactor="1.04" vaporized=""/>
    <tripinfo id="17" depart="4.00" departLane="114_4way_57to4way_48_0" departPos="5.10" departSpeed="0.00" departDelay="0.85" arrival="77.00" arrivalLane="10_3way_3to3way_2_0" arrivalPos="85.60" arrivalSpeed="13.60" duration="73.00" routeLength="675.13" waitingTime="14.00" waitingCount="1" stopTime="0.00" timeLoss="24.89" rerouteNo="0" devices="tripinfo_17" vType="DEFAULT_VEHTYPE" speedFactor="1.04" vaporized=""/>
    <tripinfo id="75" depart="14.00" departLane="93_4way_33to4way_34_0" departPos="5.10" departSpeed="0.00" departDelay="0.12" arrival="77.00" arrivalLane="19_4way_34to3way_35_0" arrivalPos="85.60" arrivalSpeed="14.49" duration="63.00" routeLength="180.50" waitingTime="40.00" waitingCount="1" stopTime="0.00" timeLoss="50.76" rerouteNo="0" devices="tripinfo_75" vType="DEFAULT_VEHTYPE" speedFactor="1.09" vaporized=""/>
    <tripinfo id="112" depart="21.00" departLane="66_4way_14to4way_23_0" departPos="5.10" departSpeed="0.00" departDelay="0.27" arrival="77.00" arrivalLane="93_4way_33to4way_34_0" arrivalPos="85.60" arrivalSpeed="12.49" duration="56.00" routeLength="375.13" waitingTime="15.00" waitingCount="1" stopTime="0.00" timeLoss="26.83" rerouteNo="0" devices="tripinfo_112" vType="DEFAULT_VEHTYPE" speedFactor="0.95" vaporized=""/>
    <tripinfo id="145" depart="27.00" departLane="50_3way_76to4way_67_0" departPos="5.10" departSpeed="0.00" departDelay="0.16" arrival="77.00" arrivalLane="111_4way_48to4way_47_0" arrivalPos="85.60" arrivalSpeed="12.42" duration="50.00" routeLength="475.13" waitingTime="1.00" waitingCount="1" stopTime="0.00" timeLoss="13.31" rerouteNo="0" devices="tripinfo_145" vType="DEFAULT_VEHTYPE" speedFactor="0.96" vaporized=""/>
    <tripinfo id="283" depart="53.00" departLane="132_4way_60to4way_61_0" departPos="5.10" departSpeed="0.00" departDelay="0.62" arrival="77.00" arrivalLane="37_4way_61to3way_62_0" arrivalPos="85.60" arrivalSpeed="13.65" duration="24.00" routeLength="180.50" waitingTime="2.00" waitingCount="1" stopTime="0.00" timeLoss="10.98" rerouteNo="0" devices="tripinfo_283" vType="DEFAULT_VEHTYPE" speedFactor="1.04" vaporized=""/>
    <tripinfo id="315" depart="63.00" departLane="93_4way_34to4way_33_0" departPos="5.10" departSpeed="0.00" departDelay="4.69" arrival="77.00" arrivalLane="93_4way_34to4way_33_0" arrivalPos="85.60" arrivalSpeed="12.27" duration="14.00" routeLength="80.50" waitingTime="0.00" waitingCount="0" stopTime="0.00" timeLoss="6.84" rerouteNo="0" devices="tripinfo_315" vType="DEFAULT_VEHTYPE" speedFactor="0.93" vaporized=""/>
    <tripinfo id="31" depart="8.00" departLane="6_3way_17to4way_16_0" departPos="5.10" departSpeed="0.00" departDelay="2.26" arrival="78.00" arrivalLane="67_4way_16to4way_15_0" arrivalPos="85.60" arrivalSpeed="14.95" duration="70.00" routeLength="180.50" waitingTime="48.00" waitingCount="1" stopTime="0.00" timeLoss="58.29" rerouteNo="0" devices="tripinfo_31" vType="DEFAULT_VEHTYPE" speedFactor="1.11" vaporized=""/>
    <tripinfo id="49" depart="10.00" departLane="108_4way_52to4way_43_0" departPos="5.10" departSpeed="0.00" departDelay="0.93" arrival="79.00" arrivalLane="65_4way_15to4way_14_0" arrivalPos="85.60" arrivalSpeed="14.52" duration="69.00" routeLength="575.13" waitingTime="15.00" waitingCount="1" stopTime="0.00" timeLoss="28.81" rerouteNo="0" devices="tripinfo_49" vType="DEFAULT_VEHTYPE" speedFactor="1.08" vaporized=""/>
    <tripinfo id="58" depart="11.00" departLane="99_4way_38to4way_47_0" departPos="5.10" departSpeed="0.00" departDelay="0.26" arrival="79.00" arrivalLane="137_4way_66to4way_67_0" arrivalPos="85.60" arrivalSpeed="12.92" duration="68.00" routeLength="475.13" waitingTime="19.00" waitingCount="1" stopTime="0.00" timeLoss="30.43" rerouteNo="0" devices="tripinfo_58" vType="DEFAULT_VEHTYPE" speedFactor="0.93" vaporized=""/>
    <tripinfo id="232" depart="43.00" departLane="79_4way_23to4way_32_0" departPos="5.10" departSpeed="0.00" departDelay="0.06" arrival="79.00" arrivalLane="93_4way_33to4way_34_0" arrivalPos="85.60" arrivalSpeed="13.47" duration="36.00" routeLength="275.13" waitingTime="5.00" waitingCount="1" stopTime="0.00" timeLoss="16.39" rerouteNo="0" devices="tripinfo_232" vType="DEFAULT_VEHTYPE" speedFactor="1.06" vaporized=""/>
    <tripinfo id="249" depart="47.00" departLane="44_4way_64to3way_73_0" departPos="5.10" departSpeed="0.00" departDelay="0.91" arrival="79.00" arrivalLane="43_3way_73to3way_74_0" arrivalPos="85.60" arrivalSpeed="14.60" duration="32.00" routeLength="175.13" waitingTime="10.00" waitingCount="1" stopTime="0.00" timeLoss="19.40" rerouteNo="0" devices="tripinfo_249" vType="DEFAULT_VEHTYPE" speedFactor="1.12" vaporized=""/>