<?xml version="1.0" encoding="UTF-8"?>

<!-- generated on 2023-07-28 01:16:03 by Eclipse SUMO sumo Version 1.12.0
<configuration xmlns:xsi="http://www.w3.org/2001/XMLSchema-instance" xsi:noNamespaceSchemaLocation="http://sumo.dlr.de/xsd/sumoConfiguration.xsd">

    <input>
        <net-file value="../../data_generation/sq.net.xml"/>
        <route-files value="../../data_generation/sq.rou.xml"/>
    </input>

    <output>
        <tripinfo-output value="tripinfo.xml"/>
        <statistic-output value="statistic.xml"/>
    </output>

    <time>
        <begin value="0"/>
        <end value="3600"/>
    </time>

    <processing>
        <time-to-teleport value="-1"/>
    </processing>

    <traci_server>
        <remote-port value="53535"/>
    </traci_server>

    <random_number>
        <seed value="1395"/>
    </random_number>

    <gui_only>
        <gui-settings-file value="../../data_generation/view_HY_0402.xml"/>
    </gui_only>

</configuration>
-->

<tripinfos xmlns:xsi="http://www.w3.org/2001/XMLSchema-instance" xsi:noNamespaceSchemaLocation="http://sumo.dlr.de/xsd/tripinfo_file.xsd">
    <tripinfo id="15" depart="4.00" departLane="80_4way_9to4way_8_0" departPos="5.10" departSpeed="0.00" departDelay="0.43" arrival="13.00" arrivalLane="80_4way_9to4way_8_0" arrivalPos="85.60" arrivalSpeed="14.22" duration="9.00" routeLength="80.50" waitingTime="0.00" waitingCount="0" stopTime="0.00" timeLoss="3.21" rerouteNo="0" devices="tripinfo_15" vType="DEFAULT_VEHTYPE" speedFactor="1.05" vaporized=""/>
    <tripinfo id="19" depart="5.00" departLane="21_3way_3to4way_10_0" departPos="5.10" departSpeed="0.00" departDelay="0.48" arrival="24.00" arrivalLane="42_4way_10to4way_17_0" arrivalPos="85.60" arrivalSpeed="11.54" duration="19.00" routeLength="180.50" waitingTime="0.00" waitingCount="0" stopTime="0.00" timeLoss="3.53" rerouteNo="0" devices="tripinfo_19" vType="DEFAULT_VEHTYPE" speedFactor="0.89" vaporized=""/>
    <tripinfo id="24" depart="6.00" departLane="16_3way_27to3way_34_0" departPos="5.10" departSpeed="0.00" departDelay="0.29" arrival="24.00" arrivalLane="22_3way_34to3way_41_0" arrivalPos="85.60" arrivalSpeed="12.90" duration="18.00" routeLength="180.50" waitingTime="0.00" waitingCount="0" stopTime="0.00" timeLoss="3.90" rerouteNo="0" devices="tripinfo_24" vType="DEFAULT_VEHTYPE" speedFactor="0.97" vaporized=""/>
    <tripinfo id="50" depart="15.00" departLane="52_4way_9to4way_16_0" departPos="5.10" departSpeed="0.00" departDelay="3.10" arrival="25.00" arrivalLane="52_4way_9to4way_16_0" arrivalPos="85.60" arrivalSpeed="13.40" duration="10.00" routeLength="80.50" waitingTime="0.00" waitingCount="0" stopTime="0.00" timeLoss="3.46" rerouteNo="0" devices="tripinfo_50" vType="DEFAULT_VEHTYPE" speedFactor="1.01" vaporized=""/>
    <tripinfo id="64" depart="16.00" departLane="52_4way_16to4way_9_0" departPos="5.10" departSpeed="0.00" departDelay="0.77" arrival="26.00" arrivalLane="52_4way_16to4way_9_0" arrivalPos="85.60" arrivalSpeed="12.55" duration="10.00" routeLength="80.50" waitingTime="0.00" waitingCount="0" stopTime="0.00" timeLoss="3.32" rerouteNo="0" devices="tripinfo_64" vType="DEFAULT_VEHTYPE" speedFactor="0.96" vaporized=""/>
    <tripinfo id="38" depart="10.00" departLane="42_4way_17to4way_10_0" departPos="5.10" departSpeed="0.00" departDelay="0.96" arrival="27.00" arrivalLane="21_4way_10to3way_3_0" arrivalPos="85.60" arrivalSpeed="13.22" duration="17.00" routeLength="180.50" waitingTime="0.00" waitingCount="0" stopTime="0.00" timeLoss="3.21" rerouteNo="0" devices="tripinfo_38" vType="DEFAULT_VEHTYPE" speedFactor="1.00" vaporized=""/>
    <tripinfo id="61" depart="18.00" departLane="33_3way_44to4way_37_0" departPos="5.10" departSpeed="0.00" departDelay="3.48" arrival="27.00" arrivalLane="33_3way_44to4way_37_0" arrivalPos="85.60" arrivalSpeed="13.79" duration="9.00" routeLength="80.50" waitingTime="0.00" waitingCount="0" stopTime="0.00" timeLoss="3.11" rerouteNo="0" devices="tripinfo_61" vType="DEFAULT_VEHTYPE" speedFactor="1.01" vaporized=""/>
    <tripinfo id="69" depart="17.00" departLane="53_4way_17to4way_18_0" departPos="5.10" departSpeed="0.00" departDelay="0.58" arrival="27.00" arrivalLane="53_4way_17to4way_18_0" arrivalPos="85.60" arrivalSpeed="10.91" duration="10.00" routeLength="80.50" waitingTime="0.00" waitingCount="0" stopTime="0.00" timeLoss="2.75" rerouteNo="0" devices="tripinfo_69" vType="DEFAULT_VEHTYPE" speedFactor="0.82" vaporized=""/>
    <tripinfo id="18" depart="5.00" departLane="8_3way_7to3way_14_0" departPos="5.10" departSpeed="0.00" departDelay="0.72" arrival="30.00" arrivalLane="14_3way_21to3way_28_0" arrivalPos="85.60" arrivalSpeed="12.94" duration="25.00" routeLength="280.50" waitingTime="0.00" waitingCount="0" stopTime="0.00" timeLoss="3.71" rerouteNo="0" devices="tripinfo_18" vType="DEFAULT_VEHTYPE" speedFactor="0.96" vaporized=""/>
    <tripinfo id="21" depart="5.00" departLane="18_3way_28to3way_35_0" departPos="5.10" departSpeed="0.00" departDelay="0.00" arrival="33.00" arrivalLane="24_3way_35to3way_43_0" arrivalPos="182.40" arrivalSpeed="10.85" duration="28.00" routeLength="277.30" waitingTime="0.00" waitingCount="0" stopTime="0.00" timeLoss="3.48" rerouteNo="0" devices="tripinfo_21" vType="DEFAULT_VEHTYPE" speedFactor="0.82" vaporized=""/>
    <tripinfo id="95" depart="23.00" departLane="36_3way_46to3way_47_0" departPos="5.10" departSpeed="0.00" departDelay="0.39" arrival="33.00" arrivalLane="36_3way_46to3way_47_0" arrivalPos="85.60" arrivalSpeed="11.05" duration="10.00" routeLength="80.50" waitingTime="0.00" waitingCount="0" stopTime="0.00" timeLoss="2.72" rerouteNo="0" devices="tripinfo_95" vType="DEFAULT_VEHTYPE" speedFactor="0.88" vaporized=""/>
    <tripinfo id="30" depart="8.00" departLane="26_3way_5to3way_4_0" departPos="5.10" departSpeed="0.00" departDelay="0.86" arrival="34.00" arrivalLane="45_4way_11to4way_18_0" arrivalPos="85.60" arrivalSpeed="14.09" duration="26.00" routeLength="275.13" waitingTime="0.00" waitingCount="0" stopTime="0.00" timeLoss="5.90" rerouteNo="0" devices="tripinfo_30" vType="DEFAULT_VEHTYPE" speedFactor="1.05" vaporized=""/>
    <tripinfo id="8" depart="2.00" departLane="74_4way_39to4way_32_0" departPos="5.10" departSpeed="0.00" departDelay="0.10" arrival="35.00" arrivalLane="45_4way_18to4way_11_0" arrivalPos="85.60" arrivalSpeed="12.37" duration="33.00" routeLength="380.50" waitingTime="0.00" waitingCount="0" stopTime="0.00" timeLoss="4.28" rerouteNo="0" devices="tripinfo_8" vType="DEFAULT_VEHTYPE" speedFactor="0.98" vaporized=""/>
    <tripinfo id="102" depart="25.00" departLane="29_3way_41to4way_40_0" departPos="5.10" departSpeed="0.00" departDelay="0.72" arrival="35.00" arrivalLane="29_3way_41to4way_40_0" arrivalPos="85.60" arrivalSpeed="14.29" duration="10.00" routeLength="80.50" waitingTime="0.00" waitingCount="0" stopTime="0.00" timeLoss="3.84" rerouteNo="0" devices="tripinfo_102" vType="DEFAULT_VEHTYPE" speedFactor="1.05" vaporized=""/>
    <tripinfo id="78" depart="19.00" departLane="65_4way_32to4way_25_0" departPos="5.10" departSpeed="0.00" departDelay="0.44" arrival="37.00" arrivalLane="62_4way_25to4way_24_0" arrivalPos="85.60" arrivalSpeed="13.41" duration="18.00" routeLength="175.13" waitingTime="0.00" waitingCount="0" stopTime="0.00" timeLoss="5.14" rerouteNo="0" devices="tripinfo_78" vType="DEFAULT_VEHTYPE" speedFactor="1.03" vaporized=""/>
    <tripinfo id="45" depart="11.00" departLane="3_3way_1to4way_8_0" departPos="5.10" departSpeed="0.00" departDelay="0.29" arrival="38.00" arrivalLane="47_4way_15to4way_16_0" arrivalPos="85.60" arrivalSpeed="13.74" duration="27.00" routeLength="275.13" waitingTime="0.00" waitingCount="0" stopTime="0.00" timeLoss="5.94" rerouteNo="0" devices="tripinfo_45" vType="DEFAULT_VEHTYPE" speedFactor="1.00" vaporized=""/>
    <tripinfo id="70" depart="17.00" departLane="46_4way_19to4way_12_0" departPos="5.10" departSpeed="0.00" departDelay="0.34" arrival="38.00" arrivalLane="39_4way_12to3way_5_0" arrivalPos="85.60" arrivalSpeed="10.04" duration="21.00" routeLength="180.50" waitingTime="0.00" waitingCount="0" stopTime="0.00" timeLoss="3.41" rerouteNo="0" devices="tripinfo_70" vType="DEFAULT_VEHTYPE" speedFactor="0.75" vaporized=""/>
    <tripinfo id="27" depart="7.00" departLane="5_3way_5to3way_13_0" departPos="5.10" departSpeed="0.00" departDelay="0.57" arrival="39.00" arrivalLane="12_3way_20to3way_27_0" arrivalPos="85.60" arrivalSpeed="13.48" duration="32.00" routeLength="383.70" waitingTime="0.00" waitingCount="0" stopTime="0.00" timeLoss="4.27" rerouteNo="0" devices="tripinfo_27" vType="DEFAULT_VEHTYPE" speedFactor="1.03" vaporized=""/>
    <tripinfo id="123" depart="30.00" departLane="72_4way_31to4way_38_0" departPos="5.10" departSpeed="0.00" departDelay="0.73" arrival="39.00" arrivalLane="72_4way_31to4way_38_0" arrivalPos="85.60" arrivalSpeed="13.68" duration="9.00" routeLength="80.50" waitingTime="0.00" waitingCount="0" stopTime="0.00" timeLoss="3.34" rerouteNo="0" devices="tripinfo_123" vType="DEFAULT_VEHTYPE" speedFactor="1.06" vaporized=""/>
    <tripinfo id="20" depart="5.00" departLane="4_3way_13to3way_20_0" departPos="5.10" departSpeed="0.00" departDelay="0.24" arrival="40.00" arrivalLane="22_3way_34to3way_41_0" arrivalPos="85.60" arrivalSpeed="11.48" duration="35.00" routeLength="380.50" waitingTime="0.00" waitingCount="0" stopTime="0.00" timeLoss="4.16" rerouteNo="0" devices="tripinfo_20" vType="DEFAULT_VEHTYPE" speedFactor="0.89" vaporized=""/>
    <tripinfo id="31" depart="11.00" departLane="26_3way_5to3way_4_0" departPos="5.10" departSpeed="0.00" departDelay="3.62" arrival="43.00" arrivalLane="56_4way_18to4way_25_0" arrivalPos="85.60" arrivalSpeed="15.29" duration="32.00" routeLength="375.13" waitingTime="0.00" waitingCount="0" stopTime="0.00" timeLoss="7.19" rerouteNo="0" devices="tripinfo_31" vType="DEFAULT_VEHTYPE" speedFactor="1.11" vaporized=""/>
    <tripinfo id="51" depart="13.00" departLane="66_4way_26to4way_33_0" departPos="5.10" departSpeed="0.00" departDelay="0.86" arrival="45.00" arrivalLane="38_4way_40to3way_47_0" arrivalPos="85.60" arrivalSpeed="9.13" duration="32.00" routeLength="280.50" waitingTime="0.00" waitingCount="0" stopTime="0.00" timeLoss="4.17" rerouteNo="0" devices="tripinfo_51" vType="DEFAULT_VEHTYPE" speedFactor="0.74" vaporized=""/>
    <tripinfo id="99" depart="27.00" departLane="20_3way_4to3way_3_0" departPos="5.10" departSpeed="0.00" departDelay="3.44" arrival="45.00" arrivalLane="10_3way_3to3way_2_0" arrivalPos="85.60" arrivalSpeed="12.31" duration="18.00" routeLength="180.50" waitingTime="0.00" waitingCount="0" stopTime="0.00" timeLoss="3.90" rerouteNo="0" devices="tripinfo_99" vType="DEFAULT_VEHTYPE" speedFactor="0.97" vaporized=""/>
    <tripinfo id="37" depart="9.00" departLane="7_3way_14to3way_21_0" departPos="5.10" departSpeed="0.00" departDelay="0.19" arrival="48.00" arrivalLane="24_3way_35to3way_43_0" arrivalPos="182.40" arrivalSpeed="13.06" duration="39.00" routeLength="477.30" waitingTime="0.00" waitingCount="0" stopTime="0.00" timeLoss="3.85" rerouteNo="0" devices="tripinfo_37" vType="DEFAULT_VEHTYPE" speedFactor="0.99" vaporized=""/>
    <tripinfo id="124" depart="30.00" departLane="27_3way_4to4way_11_0" departPos="5.10" departSpeed="0.00" departDelay="0.49" arrival="48.00" arrivalLane="44_4way_11to4way_12_0" arrivalPos="85.60" arrivalSpeed="15.04" duration="18.00" routeLength="175.13" waitingTime="0.00" waitingCount="0" stopTime="0.00" timeLoss="5.64" rerouteNo="0" devices="tripinfo_124" vType="DEFAULT_VEHTYPE" speedFactor="1.11" vaporized=""/>
    <tripinfo id="152" depart="38.00" departLane="26_3way_5to3way_4_0" departPos="5.10" departSpeed="0.00" departDelay="1.82" arrival="48.00" arrivalLane="26_3way_5to3way_4_0" arrivalPos="85.60" arrivalSpeed="12.30" duration="10.00" routeLength="80.50" waitingTime="0.00" waitingCount="0" stopTime="0.00" timeLoss="3.08" rerouteNo="0" devices="tripinfo_152" vType="DEFAULT_VEHTYPE" speedFactor="0.89" vaporized=""/>
    <tripinfo id="53" depart="13.00" departLane="32_3way_44to3way_45_0" departPos="5.10" departSpeed="0.00" departDelay="0.39" arrival="49.00" arrivalLane="54_4way_24to4way_17_0" arrivalPos="85.60" arrivalSpeed="15.06" duration="36.00" routeLength="475.13" waitingTime="0.00" waitingCount="0" stopTime="0.00" timeLoss="8.15" rerouteNo="0" devices="tripinfo_53" vType="DEFAULT_VEHTYPE" speedFactor="1.27" vaporized=""/>
    <tripinfo id="159" depart="39.00" departLane="42_4way_17to4way_10_0" departPos="5.10" departSpeed="0.00" departDelay="1.16" arrival="49.00" arrivalLane="42_4way_17to4way_10_0" arrivalPos="85.60" arrivalSpeed="13.27" duration="10.00" routeLength="80.50" waitingTime="0.00" waitingCount="0" stopTime="0.00" timeLoss="3.23" rerouteNo="0" devices="tripinfo_159" vType="DEFAULT_VEHTYPE" speedFactor="0.99" vaporized=""/>
    <tripinfo id="168" depart="40.00" departLane="27_3way_4to4way_11_0" departPos="5.10" departSpeed="0.00" departDelay="0.02" arrival="49.00" arrivalLane="27_3way_4to4way_11_0" arrivalPos="85.60" arrivalSpeed="14.68" duration="9.00" routeLength="80.50" waitingTime="0.00" waitingCount="0" stopTime="0.00" timeLoss="3.69" rerouteNo="0" devices="tripinfo_168" vType="DEFAULT_VEHTYPE" speedFactor="1.10" vaporized=""/>
    <tripinfo id="23" depart="6.00" departLane="39_3way_5to4way_12_0" departPos="5.10" departSpeed="0.00" departDelay="0.53" arrival="52.00" arrivalLane="75_4way_33to4way_40_0" arrivalPos="85.60" arrivalSpeed="10.96" duration="46.00" routeLength="480.50" waitingTime="0.00" waitingCount="0" stopTime="0.00" timeLoss="6.43" rerouteNo="0" devices="tripinfo_23" vType="DEFAULT_VEHTYPE" speedFactor="0.87" vaporized=""/>
    <tripinfo id="112" depart="27.00" departLane="28_3way_41to3way_47_0" departPos="5.10" departSpeed="0.00" departDelay="0.34" arrival="53.00" arrivalLane="36_3way_47to3way_46_0" arrivalPos="85.60" arrivalSpeed="12.61" duration="26.00" routeLength="283.70" waitingTime="0.00" waitingCount="0" stopTime="0.00" timeLoss="4.12" rerouteNo="0" devices="tripinfo_112" vType="DEFAULT_VEHTYPE" speedFactor="0.95" vaporized=""/>
    <tripinfo id="47" depart="12.00" departLane="35_3way_45to4way_38_0" departPos="5.10" departSpeed="0.00" departDelay="0.81" arrival="56.00" arrivalLane="42_4way_17to4way_10_0" arrivalPos="85.60" arrivalSpeed="11.81" duration="44.00" routeLength="480.50" waitingTime="0.00" waitingCount="0" stopTime="0.00" timeLoss="4.53" rerouteNo="0" devices="tripinfo_47" vType="DEFAULT_VEHTYPE" speedFactor="0.90" vaporized=""/>
    <tripinfo id="134" depart="32.00" departLane="66_4way_26to4way_33_0" departPos="5.10" departSpeed="0.00" departDelay="0.11" arrival="56.00" arrivalLane="38_4way_40to3way_47_0" arrivalPos="85.60" arrivalSpeed="13.50" duration="24.00" routeLength="280.50" waitingTime="0.00" waitingCount="0" stopTime="0.00" timeLoss="3.52" rerouteNo="0" devices="tripinfo_134" vType="DEFAULT_VEHTYPE" speedFactor="1.00" vaporized=""/>
    <tripinfo id="155" depart="37.00" departLane="63_4way_24to4way_31_0" departPos="5.10" departSpeed="0.00" departDelay="0.11" arrival="57.00" arrivalLane="71_4way_31to4way_32_0" arrivalPos="85.60" arrivalSpeed="12.92" duration="20.00" routeLength="175.13" waitingTime="0.00" waitingCount="0" stopTime="0.00" timeLoss="5.43" rerouteNo="0" devices="tripinfo_155" vType="DEFAULT_VEHTYPE" speedFactor="0.94" vaporized=""/>
    <tripinfo id="194" depart="48.00" departLane="18_3way_28to3way_35_0" departPos="5.10" departSpeed="0.00" departDelay="1.83" arrival="58.00" arrivalLane="18_3way_28to3way_35_0" arrivalPos="85.60" arrivalSpeed="10.09" duration="10.00" routeLength="80.50" waitingTime="0.00" waitingCount="0" stopTime="0.00" timeLoss="4.49" rerouteNo="0" devices="tripinfo_194" vType="DEFAULT_VEHTYPE" speedFactor="1.10" vaporized=""/>
    <tripinfo id="105" depart="25.00" departLane="14_3way_21to3way_28_0" departPos="5.10" departSpeed="0.00" departDelay="0.01" arrival="59.00" arrivalLane="24_3way_35to3way_43_0" arrivalPos="182.40" arrivalSpeed="12.48" duration="34.00" routeLength="377.30" waitingTime="0.00" waitingCount="0" stopTime="0.00" timeLoss="4.87" rerouteNo="0" devices="tripinfo_105" vType="DEFAULT_VEHTYPE" speedFactor="0.95" vaporized=""/>
    <tripinfo id="162" depart="42.00" departLane="42_4way_17to4way_10_0" departPos="5.10" departSpeed="0.00" departDelay="3.44" arrival="59.00" arrivalLane="21_4way_10to3way_3_0" arrivalPos="85.60" arrivalSpeed="12.94" duration="17.00" routeLength="180.50" waitingTime="0.00" waitingCount="0" stopTime="0.00" timeLoss="3.38" rerouteNo="0" devices="tripinfo_162" vType="DEFAULT_VEHTYPE" speedFactor="0.96" vaporized=""/>
    <tripinfo id="206" depart="50.00" departLane="75_4way_40to4way_33_0" departPos="5.10" departSpeed="0.00" departDelay="0.97" arrival="59.00" arrivalLane="75_4way_40to4way_33_0" arrivalPos="85.60" arrivalSpeed="12.11" duration="9.00" routeLength="80.50" waitingTime="0.00" waitingCount="0" stopTime="0.00" timeLoss="2.46" rerouteNo="0" devices="tripinfo_206" vType="DEFAULT_VEHTYPE" speedFactor="0.92" vaporized=""/>
    <tripinfo id="135" depart="35.00" departLane="45_4way_11to4way_18_0" departPos="5.10" departSpeed="0.00" departDelay="2.87" arrival="61.00" arrivalLane="64_4way_25to4way_26_0" arrivalPos="85.60" arrivalSpeed="14.81" duration="26.00" routeLength="275.13" waitingTime="0.00" waitingCount="0" stopTime="0.00" timeLoss="6.66" rerouteNo="0" devices="tripinfo_135" vType="DEFAULT_VEHTYPE" speedFactor="1.09" vaporized=""/>
    <tripinfo id="192" depart="46.00" departLane="74_4way_32to4way_39_0" departPos="5.10" departSpeed="0.00" departDelay="0.30" arrival="62.00" arrivalLane="37_4way_39to3way_46_0" arrivalPos="85.60" arrivalSpeed="15.46" duration="16.00" routeLength="180.50" waitingTime="0.00" waitingCount="0" stopTime="0.00" timeLoss="4.18" rerouteNo="0" devices="tripinfo_192" vType="DEFAULT_VEHTYPE" speedFactor="1.12" vaporized=""/>
    <tripinfo id="91" depart="22.00" departLane="30_3way_43to3way_44_0" departPos="5.10" departSpeed="0.00" departDelay="0.34" arrival="65.00" arrivalLane="63_4way_31to4way_24_0" arrivalPos="85.60" arrivalSpeed="13.71" duration="43.00" routeLength="475.13" waitingTime="0.00" waitingCount="0" stopTime="0.00" timeLoss="9.23" rerouteNo="0" devices="tripinfo_91" vType="DEFAULT_VEHTYPE" speedFactor="1.04" vaporized=""/>
    <tripinfo id="182" depart="44.00" departLane="70_4way_30to4way_37_0" departPos="5.10" departSpeed="0.00" departDelay="0.68" arrival="65.00" arrivalLane="77_4way_37to4way_38_0" arrivalPos="85.60" arrivalSpeed="11.78" duration="21.00" routeLength="175.13" waitingTime="0.00" waitingCount="0" stopTime="0.00" timeLoss="5.66" rerouteNo="0" devices="tripinfo_182" vType="DEFAULT_VEHTYPE" speedFactor="0.90" vaporized=""/>
    <tripinfo id="169" depart="41.00" departLane="33_3way_44to4way_37_0" departPos="5.10" departSpeed="0.00" departDelay="0.78" arrival="66.00" arrivalLane="67_4way_30to4way_29_0" arrivalPos="85.60" arrivalSpeed="13.97" duration="25.00" routeLength="275.13" waitingTime="0.00" waitingCount="0" stopTime="0.00" timeLoss="6.07" rerouteNo="0" devices="tripinfo_169" vType="DEFAULT_VEHTYPE" speedFactor="1.09" vaporized=""/>
    <tripinfo id="138" depart="33.00" departLane="3_3way_1to4way_8_0" departPos="5.10" departSpeed="0.00" departDelay="0.16" arrival="68.00" arrivalLane="58_4way_22to4way_23_0" arrivalPos="85.60" arrivalSpeed="13.66" duration="35.00" routeLength="375.13" waitingTime="0.00" waitingCount="0" stopTime="0.00" timeLoss="6.82" rerouteNo="0" devices="tripinfo_138" vType="DEFAULT_VEHTYPE" speedFactor="1.00" vaporized=""/>
    <tripinfo id="79" depart="21.00" departLane="73_4way_32to4way_33_0" departPos="5.10" departSpeed="0.00" departDelay="2.20" arrival="70.00" arrivalLane="73_4way_32to4way_33_0" arrivalPos="85.60" arrivalSpeed="5.18" duration="49.00" routeLength="80.50" waitingTime="35.00" waitingCount="1" stopTime="0.00" timeLoss="42.42" rerouteNo="0" devices="tripinfo_79" vType="DEFAULT_VEHTYPE" speedFactor="0.90" vaporized=""/>
    <tripinfo id="86" depart="21.00" departLane="11_3way_2to4way_9_0" departPos="5.10" departSpeed="0.00" departDelay="0.53" arrival="70.00" arrivalLane="50_4way_16to4way_17_0" arrivalPos="85.60" arrivalSpeed="4.64" duration="49.00" routeLength="275.13" waitingTime="20.00" waitingCount="1" stopTime="0.00" timeLoss="29.90" rerouteNo="0" devices="tripinfo_86" vType="DEFAULT_VEHTYPE" speedFactor="1.06" vaporized=""/>
    <tripinfo id="167" depart="40.00" departLane="10_3way_3to3way_2_0" departPos="5.10" departSpeed="0.00" departDelay="0.25" arrival="70.00" arrivalLane="3_3way_1to4way_8_0" arrivalPos="85.60" arrivalSpeed="10.93" duration="30.00" routeLength="275.13" waitingTime="0.00" waitingCount="0" stopTime="0.00" timeLoss="5.52" rerouteNo="0" devices="tripinfo_167" vType="DEFAULT_VEHTYPE" speedFactor="0.85" vaporized=""/>
    <tripinfo id="44" depart="11.00" departLane="22_3way_34to3way_41_0" departPos="5.10" departSpeed="0.00" departDelay="0.53" arrival="71.00" arrivalLane="32_3way_45to3way_44_0" arrivalPos="85.60" arrivalSpeed="10.58" duration="60.00" routeLength="583.70" waitingTime="0.00" waitingCount="0" stopTime="0.00" timeLoss="5.56" rerouteNo="0" devices="tripinfo_44" vType="DEFAULT_VEHTYPE" speedFactor="0.78" vaporized=""/>
    <tripinfo id="129" depart="31.00" departLane="41_4way_11to4way_10_0" departPos="5.10" departSpeed="0.00" departDelay="0.30" arrival="71.00" arrivalLane="41_4way_11to4way_10_0" arrivalPos="85.60" arrivalSpeed="6.38" duration="40.00" routeLength="80.50" waitingTime="26.00" waitingCount="1" stopTime="0.00" timeLoss="34.58" rerouteNo="0" devices="tripinfo_129" vType="DEFAULT_VEHTYPE" speedFactor="1.14" vaporized=""/>
    <tripinfo id="57" depart="14.00" departLane="58_4way_22to4way_23_0" departPos="5.10" departSpeed="0.00" departDelay="0.43" arrival="72.00" arrivalLane="60_4way_23to4way_24_0" arrivalPos="85.60" arrivalSpeed="7.93" duration="58.00" routeLength="180.50" waitingTime="32.00" waitingCount="1" stopTime="0.00" timeLoss="44.26" rerouteNo="0" devices="tripinfo_57" vType="DEFAULT_VEHTYPE" speedFactor="0.97" vaporized=""/>
    <tripinfo id="9" depart="3.00" departLane="45_4way_11to4way_18_0" departPos="5.10" departSpeed="0.00" departDelay="0.86" arrival="73.00" arrivalLane="79_4way_39to4way_40_0" arrivalPos="85.60" arrivalSpeed="7.89" duration="70.00" routeLength="475.13" waitingTime="18.00" waitingCount="1" stopTime="0.00" timeLoss="31.08" rerouteNo="0" devices="tripinfo_9" vType="DEFAULT_VEHTYPE" speedFactor="0.91" vaporized=""/>
    <tripinfo id="13" depart="4.00" departLane="7_3way_14to3way_21_0" departPos="5.10" departSpeed="0.00" departDelay="0.91" arrival="73.00" arrivalLane="19_3way_28to4way_29_0" arrivalPos="85.60" arrivalSpeed="8.64" duration="69.00" routeLength="275.13" waitingTime="36.00" waitingCount="1" stopTime="0.00" timeLoss="47.78" rerouteNo="0" devices="tripinfo_13" vType="DEFAULT_VEHTYPE" speedFactor="0.98" vaporized=""/>
    <tripinfo id="56" depart="16.00" departLane="54_4way_17to4way_24_0" departPos="5.10" departSpeed="0.00" departDelay="2.67" arrival="73.00" arrivalLane="78_4way_38to4way_39_0" arrivalPos="85.60" arrivalSpeed="8.10" duration="57.00" routeLength="375.13" waitingTime="16.00" waitingCount="1" stopTime="0.00" timeLoss="29.42" rerouteNo="0" devices="tripinfo_56" vType="DEFAULT_VEHTYPE" speedFactor="1.02" vaporized=""/>
    <tripinfo id="185" depart="45.00" departLane="52_4way_16to4way_9_0" departPos="5.10" departSpeed="0.00" departDelay="0.97" arrival="73.00" arrivalLane="80_4way_9to4way_8_0" arrivalPos="85.60" arrivalSpeed="8.72" duration="28.00" routeLength="175.13" waitingTime="6.00" waitingCount="1" stopTime="0.00" timeLoss="16.40" rerouteNo="0" devices="tripinfo_185" vType="DEFAULT_VEHTYPE" speedFactor="1.18" vaporized=""/>
    <tripinfo id="269" depart="65.00" departLane="53_4way_18to4way_17_0" departPos="5.10" departSpeed="0.00" departDelay="0.98" arrival="74.00" arrivalLane="53_4way_18to4way_17_0" arrivalPos="85.60" arrivalSpeed="14.41" duration="9.00" routeLength="80.50" waitingTime="0.00" waitingCount="0" stopTime="0.00" timeLoss="3.67" rerouteNo="0" devices="tripinfo_269" vType="DEFAULT_VEHTYPE" speedFactor="1.11" vaporized=""/>
    <tripinfo id="203" depart="49.00" departLane="36_3way_46to3way_47_0" departPos="5.10" departSpeed="0.00" departDelay="0.69" arrival="75.00" arrivalLane="28_3way_47to3way_41_0" arrivalPos="182.40" arrivalSpeed="12.09" duration="26.00" routeLength="277.30" waitingTime="0.00" waitingCount="0" stopTime="0.00" timeLoss="4.36" rerouteNo="0" devices="tripinfo_203" vType="DEFAULT_VEHTYPE" speedFactor="0.95" vaporized=""/>
    <tripinfo id="12" depart="3.00" departLane="17_4way_26to3way_27_0" departPos="5.10" departSpeed="0.00" departDelay="0.14" arrival="76.00" arrivalLane="12_3way_27to3way_20_0" arrivalPos="85.60" arrivalSpeed="14.95" duration="73.00" routeLength="175.13" waitingTime="51.00" waitingCount="1" stopTime="0.00" timeLoss="61.04" rerouteNo="0" devices="tripinfo_12" vType="DEFAULT_VEHTYPE" speedFactor="1.16" vaporized=""/>
    <tripinfo id="100" depart="24.00" departLane="80_4way_8to4way_9_0" departPos="5.10" departSpeed="0.00" departDelay="0.20" arrival="76.00" arrivalLane="43_4way_9to4way_10_0" arrivalPos="85.60" arrivalSpeed="16.40" duration="52.00" routeLength="180.50" waitingTime="32.00" waitingCount="1" stopTime="0.00" timeLoss="40.96" rerouteNo="0" devices="tripinfo_100" vType="DEFAULT_VEHTYPE" speedFactor="1.20" vaporized=""/>
    <tripinfo id="106" depart="26.00" departLane="56_4way_25to4way_18_0" departPos="5.10" departSpeed="0.00" departDelay="0.77" arrival="76.00" arrivalLane="50_4way_17to4way_16_0" arrivalPos="85.60" arrivalSpeed="15.75" duration="50.00" routeLength="275.13" waitingTime="20.00" waitingCount="1" stopTime="0.00" timeLoss="32.29" rerouteNo="0" devices="tripinfo_106" vType="DEFAULT_VEHTYPE" speedFactor="1.16" vaporized=""/>
    <tripinfo id="208" depart="51.00" departLane="59_4way_22to4way_29_0" departPos="5.10" departSpeed="0.00" departDelay="1.50" arrival="76.00" arrivalLane="67_4way_29to4way_30_0" arrivalPos="85.60" arrivalSpeed="9.86" duration="25.00" routeLength="175.13" waitingTime="0.00" waitingCount="0" stopTime="0.00" timeLoss="13.99" rerouteNo="0" devices="tripinfo_208" vType="DEFAULT_VEHTYPE" speedFactor="1.21" vaporized=""/>
    <tripinfo id="16" depart="4.00" departLane="51_4way_23to4way_16_0" departPos="5.10" departSpeed="0.00" departDelay="0.19" arrival="77.00" arrivalLane="1_3way_2to3way_1_0" arrivalPos="85.60" arrivalSpeed="12.20" duration="73.00" routeLength="375.13" waitingTime="33.00" waitingCount="1" stopTime="0.00" timeLoss="42.05" rerouteNo="0" devices="tripinfo_16" vType="DEFAULT_VEHTYPE" speedFactor="0.90" vaporized=""/>
    <tripinfo id="22" depart="6.00" departLane="40_3way_7to4way_8_0" departPos="5.10" departSpeed="0.00" departDelay="0.76" arrival="77.00" arrivalLane="80_4way_8to4way_9_0" arrivalPos="85.60" arrivalSpeed="13.09" duration="71.00" routeLength="180.50" waitingTime="47.00" waitingCount="1" stopTime="0.00" timeLoss="58.01" rerouteNo="0" devices="tripinfo_22" vType="DEFAULT_VEHTYPE" speedFactor="1.00" vaporized=""/>
    <tripinfo id="25" depart="6.00" departLane="37_3way_46to4way_39_0" departPos="5.10" departSpeed="0.00" departDelay="0.05" arrival="77.00" arrivalLane="77_4way_38to4way_37_0" arrivalPos="85.60" arrivalSpeed="12.16" duration="71.00" routeLength="275.13" waitingTime="39.00" waitingCount="1" stopTime="0.00" timeLoss="49.36" rerouteNo="0" devices="tripinfo_25" vType="DEFAULT_VEHTYPE" speedFactor="0.95" vaporized=""/>
    <tripinfo id="59" depart="15.00" departLane="51_4way_23to4way_16_0" departPos="5.10" departSpeed="0.00" departDelay="0.96" arrival="77.00" arrivalLane="40_4way_8to3way_7_0" arrivalPos="85.60" arrivalSpeed="13.68" duration="62.00" routeLength="375.13" waitingTime="23.00" waitingCount="1" stopTime="0.00" timeLoss="35.35" rerouteNo="0" devices="tripinfo_59" vType="DEFAULT_VEHTYPE" speedFactor="1.03" vaporized=""/>
    <tripinfo id="66" depart="18.00" departLane="8_3way_7to3way_14_0" departPos="5.10" departSpeed="0.00" departDelay="2.29" arrival="77.00" arrivalLane="76_4way_36to4way_37_0" arrivalPos="85.60" arrivalSpeed="11.63" duration="59.00" routeLength="575.13" waitingTime="0.00" waitingCount="0" stopTime="0.00" timeLoss="9.45" rerouteNo="0" devices="tripinfo_66" vType="DEFAULT_VEHTYPE" speedFactor="0.86" vaporized=""/>
    <tripinfo id="75" depart="21.00" departLane="52_4way_9to4way_16_0" departPos="5.10" departSpeed="0.00" departDelay="3.15" arrival="77.00" arrivalLane="53_4way_17to4way_18_0" arrivalPos="85.60" arrivalSpeed="14.51" duration="56.00" routeLength="275.13" waitingTime="24.00" waitingCount="1" stopTime="0.00" timeLoss="36.49" rerouteNo="0" devices="tripinfo_75" vType="DEFAULT_VEHTYPE" speedFactor="1.09" vaporized=""/>
    <tripinfo id="183" depart="44.00" departLane="16_3way_27to3way_34_0" departPos="5.10" departSpeed="0.00" departDelay="0.45" arrival="77.00" arrivalLane="28_3way_41to3way_47_0" arrivalPos="188.80" arrivalSpeed="12.80" duration="33.00" routeLength="383.70" waitingTime="0.00" waitingCount="0" stopTime="0.00" timeLoss="4.33" rerouteNo="0" devices="tripinfo_183" vType="DEFAULT_VEHTYPE" speedFactor="0.96" vaporized=""/>
    <tripinfo id="277" depart="67.00" departLane="79_4way_39to4way_40_0" departPos="5.10" departSpeed="0.00" departDelay="1.07" arrival="77.00" arrivalLane="79_4way_39to4way_40_0" arrivalPos="85.60" arrivalSpeed="11.56" duration="10.00" routeLength="80.50" waitingTime="0.00" waitingCount="0" stopTime="0.00" timeLoss="2.86" rerouteNo="0" devices="tripinfo_277" vType="DEFAULT_VEHTYPE" speedFactor="0.88" vaporized=""/>
    <tripinfo id="48" depart="12.00" departLane="73_4way_33to4way_32_0" departPos="5.10" departSpeed="0.00" departDelay="0.58" arrival="78.00" arrivalLane="71_4way_32to4way_31_0" arrivalPos="85.60" arrivalSpeed="10.44" duration="66.00" routeLength="180.50" waitingTime="42.00" waitingCount="1" stopTime="0.00" timeLoss="50.13" rerouteNo="0" devices="tripinfo_48" vType="DEFAULT_VEHTYPE" speedFactor="0.83" vaporized=""/>