<?xml version="1.0" encoding="UTF-8"?>

<!-- generated on 2023-08-03 22:19:25 by Eclipse SUMO sumo Version 1.12.0
<configuration xmlns:xsi="http://www.w3.org/2001/XMLSchema-instance" xsi:noNamespaceSchemaLocation="http://sumo.dlr.de/xsd/sumoConfiguration.xsd">

    <input>
        <net-file value="../../data_generation/sq.net.xml"/>
        <route-files value="../../data_generation/sq.rou.xml"/>
    </input>

    <output>
        <tripinfo-output value="tripinfo.xml"/>
        <statistic-output value="statistic.xml"/>
    </output>

    <time>
        <begin value="0"/>
        <end value="3600"/>
    </time>

    <processing>
        <time-to-teleport value="-1"/>
    </processing>

    <traci_server>
        <remote-port value="43339"/>
    </traci_server>

    <random_number>
        <seed value="1395"/>
    </random_number>

    <gui_only>
        <gui-settings-file value="../../data_generation/view_HY_0402.xml"/>
    </gui_only>

</configuration>
-->

<tripinfos xmlns:xsi="http://www.w3.org/2001/XMLSchema-instance" xsi:noNamespaceSchemaLocation="http://sumo.dlr.de/xsd/tripinfo_file.xsd">
    <tripinfo id="22" depart="3.00" departLane="478_4way_291to4way_271_0" departPos="5.10" departSpeed="0.00" departDelay="0.56" arrival="13.00" arrivalLane="478_4way_291to4way_271_0" arrivalPos="85.60" arrivalSpeed="13.10" duration="10.00" routeLength="80.50" waitingTime="0.00" waitingCount="0" stopTime="0.00" timeLoss="3.35" rerouteNo="0" devices="tripinfo_22" vType="DEFAULT_VEHTYPE" speedFactor="1.00" vaporized=""/>
    <tripinfo id="9" depart="1.00" departLane="733_4way_76to4way_75_0" departPos="5.10" departSpeed="0.00" departDelay="0.00" arrival="19.00" arrivalLane="731_4way_75to4way_74_0" arrivalPos="85.60" arrivalSpeed="12.36" duration="18.00" routeLength="180.50" waitingTime="0.00" waitingCount="0" stopTime="0.00" timeLoss="3.23" rerouteNo="0" devices="tripinfo_9" vType="DEFAULT_VEHTYPE" speedFactor="0.91" vaporized=""/>
    <tripinfo id="18" depart="5.00" departLane="359_4way_230to4way_210_0" departPos="5.10" departSpeed="0.00" departDelay="3.00" arrival="23.00" arrivalLane="322_4way_210to4way_190_0" arrivalPos="85.60" arrivalSpeed="12.69" duration="18.00" routeLength="180.50" waitingTime="0.00" waitingCount="0" stopTime="0.00" timeLoss="4.13" rerouteNo="0" devices="tripinfo_18" vType="DEFAULT_VEHTYPE" speedFactor="0.96" vaporized=""/>
    <tripinfo id="160" depart="18.00" departLane="90_3way_382to4way_362_0" departPos="5.10" departSpeed="0.00" departDelay="0.22" arrival="28.00" arrivalLane="90_3way_382to4way_362_0" arrivalPos="85.60" arrivalSpeed="11.34" duration="10.00" routeLength="80.50" waitingTime="0.00" waitingCount="0" stopTime="0.00" timeLoss="2.67" rerouteNo="0" devices="tripinfo_160" vType="DEFAULT_VEHTYPE" speedFactor="0.88" vaporized=""/>
    <tripinfo id="167" depart="19.00" departLane="697_4way_54to4way_74_0" departPos="5.10" departSpeed="0.00" departDelay="0.45" arrival="29.00" arrivalLane="697_4way_54to4way_74_0" arrivalPos="85.60" arrivalSpeed="11.13" duration="10.00" routeLength="80.50" waitingTime="0.00" waitingCount="0" stopTime="0.00" timeLoss="2.64" rerouteNo="0" devices="tripinfo_167" vType="DEFAULT_VEHTYPE" speedFactor="0.85" vaporized=""/>
    <tripinfo id="198" depart="22.00" departLane="540_4way_324to4way_304_0" departPos="5.10" departSpeed="0.00" departDelay="0.00" arrival="32.00" arrivalLane="540_4way_324to4way_304_0" arrivalPos="85.60" arrivalSpeed="10.96" duration="10.00" routeLength="80.50" waitingTime="0.00" waitingCount="0" stopTime="0.00" timeLoss="2.91" rerouteNo="0" devices="tripinfo_198" vType="DEFAULT_VEHTYPE" speedFactor="0.87" vaporized=""/>
    <tripinfo id="332" depart="37.00" departLane="542_4way_305to4way_325_0" departPos="5.10" departSpeed="0.00" departDelay="0.11" arrival="47.00" arrivalLane="542_4way_305to4way_325_0" arrivalPos="85.60" arrivalSpeed="11.43" duration="10.00" routeLength="80.50" waitingTime="0.00" waitingCount="0" stopTime="0.00" timeLoss="2.79" rerouteNo="0" devices="tripinfo_332" vType="DEFAULT_VEHTYPE" speedFactor="0.83" vaporized=""/>
    <tripinfo id="203" depart="23.00" departLane="708_4way_62to4way_82_0" departPos="5.10" departSpeed="0.00" departDelay="0.45" arrival="51.00" arrivalLane="742_4way_83to4way_84_0" arrivalPos="85.60" arrivalSpeed="12.16" duration="28.00" routeLength="275.13" waitingTime="0.00" waitingCount="0" stopTime="0.00" timeLoss="6.00" rerouteNo="0" devices="tripinfo_203" vType="DEFAULT_VEHTYPE" speedFactor="0.95" vaporized=""/>
    <tripinfo id="324" depart="36.00" departLane="120_3way_396to4way_376_0" departPos="5.10" departSpeed="0.00" departDelay="0.00" arrival="54.00" arrivalLane="666_4way_376to4way_375_0" arrivalPos="85.60" arrivalSpeed="13.63" duration="18.00" routeLength="175.13" waitingTime="0.00" waitingCount="0" stopTime="0.00" timeLoss="5.32" rerouteNo="0" devices="tripinfo_324" vType="DEFAULT_VEHTYPE" speedFactor="1.05" vaporized=""/>
    <tripinfo id="326" depart="37.00" departLane="18_3way_120to4way_121_0" departPos="5.10" departSpeed="0.00" departDelay="0.78" arrival="54.00" arrivalLane="198_4way_121to4way_122_0" arrivalPos="85.60" arrivalSpeed="13.18" duration="17.00" routeLength="180.50" waitingTime="0.00" waitingCount="0" stopTime="0.00" timeLoss="3.64" rerouteNo="0" devices="tripinfo_326" vType="DEFAULT_VEHTYPE" speedFactor="1.00" vaporized=""/>
    <tripinfo id="445" depart="50.00" departLane="465_4way_267to4way_266_0" departPos="5.10" departSpeed="0.00" departDelay="0.56" arrival="59.00" arrivalLane="465_4way_267to4way_266_0" arrivalPos="85.60" arrivalSpeed="13.83" duration="9.00" routeLength="80.50" waitingTime="0.00" waitingCount="0" stopTime="0.00" timeLoss="3.13" rerouteNo="0" devices="tripinfo_445" vType="DEFAULT_VEHTYPE" speedFactor="1.02" vaporized=""/>
    <tripinfo id="452" depart="51.00" departLane="755_4way_97to4way_96_0" departPos="5.10" departSpeed="0.00" departDelay="0.78" arrival="69.00" arrivalLane="192_4way_96to4way_116_0" arrivalPos="85.60" arrivalSpeed="14.85" duration="18.00" routeLength="175.13" waitingTime="0.00" waitingCount="0" stopTime="0.00" timeLoss="5.35" rerouteNo="0" devices="tripinfo_452" vType="DEFAULT_VEHTYPE" speedFactor="1.09" vaporized=""/>
    <tripinfo id="118" depart="14.00" departLane="745_4way_87to4way_86_0" departPos="5.10" departSpeed="0.00" departDelay="0.89" arrival="70.00" arrivalLane="159_4way_85to4way_105_0" arrivalPos="85.60" arrivalSpeed="7.09" duration="56.00" routeLength="275.13" waitingTime="26.00" waitingCount="1" stopTime="0.00" timeLoss="35.74" rerouteNo="0" devices="tripinfo_118" vType="DEFAULT_VEHTYPE" speedFactor="1.05" vaporized=""/>
    <tripinfo id="149" depart="19.00" departLane="739_4way_78to4way_98_0" departPos="5.10" departSpeed="0.00" departDelay="2.45" arrival="70.00" arrivalLane="267_4way_158to4way_178_0" arrivalPos="85.60" arrivalSpeed="5.97" duration="51.00" routeLength="480.50" waitingTime="6.00" waitingCount="1" stopTime="0.00" timeLoss="14.52" rerouteNo="0" devices="tripinfo_149" vType="DEFAULT_VEHTYPE" speedFactor="0.95" vaporized=""/>
    <tripinfo id="303" depart="34.00" departLane="148_4way_102to4way_103_0" departPos="5.10" departSpeed="0.00" departDelay="0.34" arrival="70.00" arrivalLane="148_4way_102to4way_103_0" arrivalPos="85.60" arrivalSpeed="5.95" duration="36.00" routeLength="80.50" waitingTime="23.00" waitingCount="1" stopTime="0.00" timeLoss="30.12" rerouteNo="0" devices="tripinfo_303" vType="DEFAULT_VEHTYPE" speedFactor="1.02" vaporized=""/>
    <tripinfo id="416" depart="47.00" departLane="551_4way_31to4way_32_0" departPos="5.10" departSpeed="0.00" departDelay="0.78" arrival="70.00" arrivalLane="570_4way_32to4way_33_0" arrivalPos="85.60" arrivalSpeed="4.93" duration="23.00" routeLength="180.50" waitingTime="1.00" waitingCount="1" stopTime="0.00" timeLoss="10.39" rerouteNo="0" devices="tripinfo_416" vType="DEFAULT_VEHTYPE" speedFactor="1.04" vaporized=""/>
    <tripinfo id="51" depart="6.00" departLane="756_4way_98to4way_97_0" departPos="5.10" departSpeed="0.00" departDelay="0.33" arrival="73.00" arrivalLane="752_4way_94to4way_93_0" arrivalPos="85.60" arrivalSpeed="7.98" duration="67.00" routeLength="480.50" waitingTime="9.00" waitingCount="1" stopTime="0.00" timeLoss="19.79" rerouteNo="0" devices="tripinfo_51" vType="DEFAULT_VEHTYPE" speedFactor="0.74" vaporized=""/>
    <tripinfo id="284" depart="32.00" departLane="196_4way_138to4way_118_0" departPos="5.10" departSpeed="0.00" departDelay="0.45" arrival="73.00" arrivalLane="187_4way_116to4way_115_0" arrivalPos="85.60" arrivalSpeed="7.97" duration="41.00" routeLength="375.13" waitingTime="5.00" waitingCount="1" stopTime="0.00" timeLoss="16.01" rerouteNo="0" devices="tripinfo_284" vType="DEFAULT_VEHTYPE" speedFactor="1.12" vaporized=""/>
    <tripinfo id="318" depart="36.00" departLane="109_3way_392to3way_391_0" departPos="5.10" departSpeed="0.00" departDelay="0.67" arrival="73.00" arrivalLane="101_3way_389to3way_388_0" arrivalPos="85.60" arrivalSpeed="7.39" duration="37.00" routeLength="380.50" waitingTime="0.00" waitingCount="0" stopTime="0.00" timeLoss="9.74" rerouteNo="0" devices="tripinfo_318" vType="DEFAULT_VEHTYPE" speedFactor="1.01" vaporized=""/>
    <tripinfo id="351" depart="39.00" departLane="73_3way_339to3way_319_0" departPos="5.10" departSpeed="0.00" departDelay="0.00" arrival="75.00" arrivalLane="67_3way_319to3way_299_0" arrivalPos="85.60" arrivalSpeed="9.60" duration="36.00" routeLength="180.50" waitingTime="12.00" waitingCount="1" stopTime="0.00" timeLoss="20.12" rerouteNo="0" devices="tripinfo_351" vType="DEFAULT_VEHTYPE" speedFactor="0.85" vaporized=""/>
    <tripinfo id="531" depart="59.00" departLane="124_3way_5to3way_4_0" departPos="5.10" departSpeed="0.00" departDelay="0.01" arrival="75.00" arrivalLane="69_3way_4to3way_3_0" arrivalPos="85.60" arrivalSpeed="14.31" duration="16.00" routeLength="180.50" waitingTime="0.00" waitingCount="0" stopTime="0.00" timeLoss="4.02" rerouteNo="0" devices="tripinfo_531" vType="DEFAULT_VEHTYPE" speedFactor="1.11" vaporized=""/>
    <tripinfo id="210" depart="24.00" departLane="530_4way_318to4way_298_0" departPos="5.10" departSpeed="0.00" departDelay="0.67" arrival="76.00" arrivalLane="302_4way_198to4way_178_0" arrivalPos="85.60" arrivalSpeed="15.98" duration="52.00" routeLength="680.50" waitingTime="0.00" waitingCount="0" stopTime="0.00" timeLoss="10.54" rerouteNo="0" devices="tripinfo_210" vType="DEFAULT_VEHTYPE" speedFactor="1.20" vaporized=""/>
    <tripinfo id="258" depart="29.00" departLane="342_4way_204to4way_203_0" departPos="5.10" departSpeed="0.00" departDelay="0.34" arrival="76.00" arrivalLane="338_4way_202to4way_201_0" arrivalPos="85.60" arrivalSpeed="14.29" duration="47.00" routeLength="280.50" waitingTime="19.00" waitingCount="1" stopTime="0.00" timeLoss="28.67" rerouteNo="0" devices="tripinfo_258" vType="DEFAULT_VEHTYPE" speedFactor="1.12" vaporized=""/>
    <tripinfo id="27" depart="3.00" departLane="41_3way_180to3way_200_0" departPos="5.10" departSpeed="0.00" departDelay="0.00" arrival="77.00" arrivalLane="54_3way_220to4way_221_0" arrivalPos="85.60" arrivalSpeed="13.31" duration="74.00" routeLength="275.13" waitingTime="45.00" waitingCount="1" stopTime="0.00" timeLoss="53.84" rerouteNo="0" devices="tripinfo_27" vType="DEFAULT_VEHTYPE" speedFactor="1.03" vaporized=""/>
    <tripinfo id="148" depart="17.00" departLane="118_4way_375to3way_395_0" departPos="5.10" departSpeed="0.00" departDelay="0.56" arrival="77.00" arrivalLane="117_3way_395to3way_396_0" arrivalPos="85.60" arrivalSpeed="13.67" duration="60.00" routeLength="175.13" waitingTime="37.00" waitingCount="1" stopTime="0.00" timeLoss="46.95" rerouteNo="0" devices="tripinfo_148" vType="DEFAULT_VEHTYPE" speedFactor="1.07" vaporized=""/>
    <tripinfo id="158" depart="18.00" departLane="166_4way_109to4way_108_0" departPos="5.10" departSpeed="0.00" departDelay="0.45" arrival="77.00" arrivalLane="160_4way_107to4way_106_0" arrivalPos="85.60" arrivalSpeed="12.10" duration="59.00" routeLength="280.50" waitingTime="29.00" waitingCount="1" stopTime="0.00" timeLoss="37.58" rerouteNo="0" devices="tripinfo_158" vType="DEFAULT_VEHTYPE" speedFactor="0.96" vaporized=""/>
    <tripinfo id="189" depart="21.00" departLane="512_4way_30to4way_29_0" departPos="5.10" departSpeed="0.00" departDelay="0.00" arrival="77.00" arrivalLane="474_4way_27to4way_47_0" arrivalPos="85.60" arrivalSpeed="12.32" duration="56.00" routeLength="375.13" waitingTime="17.00" waitingCount="1" stopTime="0.00" timeLoss="25.82" rerouteNo="0" devices="tripinfo_189" vType="DEFAULT_VEHTYPE" speedFactor="0.92" vaporized=""/>
    <tripinfo id="388" depart="44.00" departLane="582_4way_327to4way_326_0" departPos="5.10" departSpeed="0.00" departDelay="0.89" arrival="77.00" arrivalLane="622_4way_346to4way_366_0" arrivalPos="85.60" arrivalSpeed="12.93" duration="33.00" routeLength="275.13" waitingTime="1.00" waitingCount="1" stopTime="0.00" timeLoss="11.33" rerouteNo="0" devices="tripinfo_388" vType="DEFAULT_VEHTYPE" speedFactor="0.95" vaporized=""/>
    <tripinfo id="397" depart="45.00" departLane="372_4way_217to4way_218_0" departPos="5.10" departSpeed="0.00" departDelay="0.89" arrival="77.00" arrivalLane="337_4way_218to4way_198_0" arrivalPos="85.60" arrivalSpeed="14.31" duration="32.00" routeLength="175.13" waitingTime="9.00" waitingCount="1" stopTime="0.00" timeLoss="18.89" rerouteNo="0" devices="tripinfo_397" vType="DEFAULT_VEHTYPE" speedFactor="1.05" vaporized=""/>
    <tripinfo id="257" depart="29.00" departLane="438_4way_252to4way_251_0" departPos="5.10" departSpeed="0.00" departDelay="0.45" arrival="78.00" arrivalLane="437_4way_250to4way_270_0" arrivalPos="85.60" arrivalSpeed="10.72" duration="49.00" routeLength="275.13" waitingTime="16.00" waitingCount="1" stopTime="0.00" timeLoss="23.91" rerouteNo="0" devices="tripinfo_257" vType="DEFAULT_VEHTYPE" speedFactor="0.83" vaporized=""/>
    <tripinfo id="320" depart="36.00" departLane="409_4way_237to4way_236_0" departPos="5.10" departSpeed="0.00" departDelay="0.45" arrival="78.00" arrivalLane="408_4way_235to4way_255_0" arrivalPos="85.60" arrivalSpeed="11.32" duration="42.00" routeLength="275.13" waitingTime="10.00" waitingCount="1" stopTime="0.00" timeLoss="18.16" rerouteNo="0" devices="tripinfo_320" vType="DEFAULT_VEHTYPE" speedFactor="0.88" vaporized=""/>
    <tripinfo id="610" depart="68.00" departLane="413_4way_238to4way_258_0" departPos="5.10" departSpeed="0.00" departDelay="0.23" arrival="78.00" arrivalLane="413_4way_238to4way_258_0" arrivalPos="85.60" arrivalSpeed="12.31" duration="10.00" routeLength="80.50" waitingTime="0.00" waitingCount="0" stopTime="0.00" timeLoss="3.33" rerouteNo="0" devices="tripinfo_610" vType="DEFAULT_VEHTYPE" speedFactor="0.93" vaporized=""/>
    <tripinfo id="232" depart="26.00" departLane="8_3way_80to3way_100_0" departPos="5.10" departSpeed="0.00" departDelay="0.22" arrival="79.00" arrivalLane="145_4way_101to4way_102_0" arrivalPos="85.60" arrivalSpeed="14.50" duration="53.00" routeLength="275.13" waitingTime="21.00" waitingCount="1" stopTime="0.00" timeLoss="32.90" rerouteNo="0" devices="tripinfo_232" vType="DEFAULT_VEHTYPE" speedFactor="1.06" vaporized=""/>
    <tripinfo id="418" depart="47.00" departLane="131_3way_59to4way_58_0" departPos="5.10" departSpeed="0.00" departDelay="0.56" arrival="84.00" arrivalLane="703_4way_57to4way_77_0" arrivalPos="85.60" arrivalSpeed="10.52" duration="37.00" routeLength="275.13" waitingTime="0.00" waitingCount="0" stopTime="0.00" timeLoss="10.58" rerouteNo="0" devices="tripinfo_418" vType="DEFAULT_VEHTYPE" speedFactor="0.79" vaporized=""/>
    <tripinfo id="421" depart="47.00" departLane="664_4way_374to4way_373_0" departPos="5.10" departSpeed="0.00" departDelay="0.23" arrival="86.00" arrivalLane="112_4way_372to3way_392_0" arrivalPos="85.60" arrivalSpeed="12.70" duration="39.00" routeLength="275.13" waitingTime="8.00" waitingCount="1" stopTime="0.00" timeLoss="18.59" rerouteNo="0" devices="tripinfo_421" vType="DEFAULT_VEHTYPE" speedFactor="0.99" vaporized=""/>
    <tripinfo id="478" depart="54.00" departLane="315_4way_188to4way_187_0" departPos="5.10" departSpeed="0.00" departDelay="0.89" arrival="88.00" arrivalLane="351_4way_207to4way_227_0" arrivalPos="85.60" arrivalSpeed="12.33" duration="34.00" routeLength="275.13" waitingTime="3.00" waitingCount="1" stopTime="0.00" timeLoss="11.70" rerouteNo="0" devices="tripinfo_478" vType="DEFAULT_VEHTYPE" speedFactor="0.96" vaporized=""/>
    <tripinfo id="357" depart="40.00" departLane="34_4way_161to3way_160_0" departPos="5.10" departSpeed="0.00" departDelay="0.34" arrival="89.00" arrivalLane="53_3way_220to3way_240_0" arrivalPos="85.60" arrivalSpeed="8.15" duration="49.00" routeLength="475.13" waitingTime="0.00" waitingCount="0" stopTime="0.00" timeLoss="15.62" rerouteNo="0" devices="tripinfo_357" vType="DEFAULT_VEHTYPE" speedFactor="1.04" vaporized=""/>
    <tripinfo id="207" depart="23.00" departLane="377_4way_222to4way_221_0" departPos="5.10" departSpeed="0.00" departDelay="0.00" arrival="91.00" arrivalLane="534_4way_301to4way_321_0" arrivalPos="85.60" arrivalSpeed="13.59" duration="68.00" routeLength="575.13" waitingTime="10.00" waitingCount="1" stopTime="0.00" timeLoss="33.72" rerouteNo="0" devices="tripinfo_207" vType="DEFAULT_VEHTYPE" speedFactor="1.24" vaporized=""/>
    <tripinfo id="325" depart="37.00" departLane="547_4way_309to4way_308_0" departPos="5.10" departSpeed="0.00" departDelay="0.89" arrival="92.00" arrivalLane="624_4way_347to4way_367_0" arrivalPos="85.60" arrivalSpeed="12.86" duration="55.00" routeLength="475.13" waitingTime="9.00" waitingCount="1" stopTime="0.00" timeLoss="19.97" rerouteNo="0" devices="tripinfo_325" vType="DEFAULT_VEHTYPE" speedFactor="1.01" vaporized=""/>
    <tripinfo id="507" depart="57.00" departLane="453_4way_26to4way_27_0" departPos="5.10" departSpeed="0.00" departDelay="0.67" arrival="93.00" arrivalLane="143_4way_29to3way_9_0" arrivalPos="85.60" arrivalSpeed="12.94" duration="36.00" routeLength="375.13" waitingTime="0.00" waitingCount="0" stopTime="0.00" timeLoss="6.91" rerouteNo="0" devices="tripinfo_507" vType="DEFAULT_VEHTYPE" speedFactor="0.97" vaporized=""/>
    <tripinfo id="559" depart="63.00" departLane="665_4way_374to4way_375_0" departPos="5.10" departSpeed="0.00" departDelay="0.89" arrival="93.00" arrivalLane="644_4way_376to4way_356_0" arrivalPos="85.60" arrivalSpeed="10.58" duration="30.00" routeLength="275.13" waitingTime="0.00" waitingCount="0" stopTime="0.00" timeLoss="5.67" rerouteNo="0" devices="tripinfo_559" vType="DEFAULT_VEHTYPE" speedFactor="0.85" vaporized=""/>
    <tripinfo id="156" depart="18.00" departLane="81_3way_379to3way_359_0" departPos="5.10" departSpeed="0.00" departDelay="0.67" arrival="94.00" arrivalLane="67_3way_319to3way_299_0" arrivalPos="85.60" arrivalSpeed="12.27" duration="76.00" routeLength="380.50" waitingTime="36.00" waitingCount="1" stopTime="0.00" timeLoss="45.67" rerouteNo="0" devices="tripinfo_156" vType="DEFAULT_VEHTYPE" speedFactor="0.91" vaporized=""/>
    <tripinfo id="163" depart="19.00" departLane="179_4way_132to4way_112_0" departPos="5.10" departSpeed="0.00" departDelay="0.89" arrival="94.00" arrivalLane="571_4way_52to4way_32_0" arrivalPos="85.60" arrivalSpeed="12.24" duration="75.00" routeLength="480.50" waitingTime="28.00" waitingCount="1" stopTime="0.00" timeLoss="37.37" rerouteNo="0" devices="tripinfo_163" vType="DEFAULT_VEHTYPE" speedFactor="0.94" vaporized=""/>
    <tripinfo id="197" depart="22.00" departLane="669_4way_58to4way_38_0" departPos="5.10" departSpeed="0.00" departDelay="0.11" arrival="94.00" arrivalLane="23_3way_15to3way_14_0" arrivalPos="85.60" arrivalSpeed="13.98" duration="72.00" routeLength="575.13" waitingTime="17.00" waitingCount="1" stopTime="0.00" timeLoss="29.96" rerouteNo="0" devices="tripinfo_197" vType="DEFAULT_VEHTYPE" speedFactor="1.01" vaporized=""/>
    <tripinfo id="7" depart="1.00" departLane="77_3way_359to3way_339_0" departPos="5.10" departSpeed="0.00" departDelay="0.22" arrival="95.00" arrivalLane="55_3way_259to3way_239_0" arrivalPos="85.60" arrivalSpeed="12.84" duration="94.00" routeLength="580.50" waitingTime="35.00" waitingCount="1" stopTime="0.00" timeLoss="49.25" rerouteNo="0" devices="tripinfo_7" vType="DEFAULT_VEHTYPE" speedFactor="0.95" vaporized=""/>
    <tripinfo id="400" depart="45.00" departLane="552_4way_51to4way_31_0" departPos="5.10" departSpeed="0.00" departDelay="0.56" arrival="96.00" arrivalLane="27_3way_15to3way_16_0" arrivalPos="85.60" arrivalSpeed="15.40" duration="51.00" routeLength="680.29" waitingTime="0.00" waitingCount="0" stopTime="0.00" timeLoss="7.32" rerouteNo="0" devices="tripinfo_400" vType="DEFAULT_VEHTYPE" speedFactor="1.15" vaporized=""/>
    <tripinfo id="103" depart="12.00" departLane="655_4way_366to4way_367_0" departPos="5.10" departSpeed="0.00" departDelay="0.56" arrival="97.00" arrivalLane="661_4way_370to4way_371_0" arrivalPos="85.60" arrivalSpeed="15.15" duration="85.00" routeLength="480.50" waitingTime="42.00" waitingCount="1" stopTime="0.00" timeLoss="54.37" rerouteNo="0" devices="tripinfo_103" vType="DEFAULT_VEHTYPE" speedFactor="1.15" vaporized=""/>
    <tripinfo id="93" depart="11.00" departLane="628_4way_369to4way_349_0" departPos="5.10" departSpeed="0.00" departDelay="0.67" arrival="98.00" arrivalLane="547_4way_309to4way_308_0" arrivalPos="85.60" arrivalSpeed="13.90" duration="87.00" routeLength="375.13" waitingTime="44.00" waitingCount="1" stopTime="0.00" timeLoss="59.57" rerouteNo="0" devices="tripinfo_93" vType="DEFAULT_VEHTYPE" speedFactor="1.00" vaporized=""/>
    <tripinfo id="712" depart="81.00" departLane="418_4way_242to4way_243_0" departPos="5.10" departSpeed="0.00" departDelay="1.90" arrival="99.00" arrivalLane="382_4way_243to4way_223_0" arrivalPos="85.60" arrivalSpeed="14.08" duration="18.00" routeLength="175.13" waitingTime="0.00" waitingCount="0" stopTime="0.00" timeLoss="5.18" rerouteNo="0" devices="tripinfo_712" vType="DEFAULT_VEHTYPE" speedFactor="1.03" vaporized=""/>
    <tripinfo id="662" depart="74.00" departLane="629_4way_36to4way_35_0" departPos="5.10" departSpeed="0.00" departDelay="0.45" arrival="100.00" arrivalLane="699_4way_55to4way_75_0" arrivalPos="85.60" arrivalSpeed="13.21" duration="26.00" routeLength="275.13" waitingTime="0.00" waitingCount="0" stopTime="0.00" timeLoss="4.99" rerouteNo="0" devices="tripinfo_662" vType="DEFAULT_VEHTYPE" speedFactor="0.98" vaporized=""/>
    <tripinfo id="122" depart="14.00" departLane="464_4way_265to4way_285_0" departPos="5.10" departSpeed="0.00" departDelay="0.45" arrival="101.00" arrivalLane="516_4way_291to4way_292_0" arrivalPos="85.60" arrivalSpeed="16.50" duration="87.00" routeLength="775.13" waitingTime="27.00" waitingCount="1" stopTime="0.00" timeLoss="39.97" rerouteNo="0" devices="tripinfo_122" vType="DEFAULT_VEHTYPE" speedFactor="1.20" vaporized=""/>
    <tripinfo id="25" depart="3.00" departLane="426_4way_246to4way_247_0" departPos="5.10" departSpeed="0.00" departDelay="0.22" arrival="103.00" arrivalLane="355_4way_229to4way_209_0" arrivalPos="85.60" arrivalSpeed="13.04" duration="100.00" routeLength="475.13" waitingTime="51.00" waitingCount="1" stopTime="0.00" timeLoss="63.08" rerouteNo="0" devices="tripinfo_25" vType="DEFAULT_VEHTYPE" speedFactor="0.95" vaporized=""/>
    <tripinfo id="339" depart="39.00" departLane="620_4way_345to4way_365_0" departPos="5.10" departSpeed="0.00" departDelay="1.34" arrival="103.00" arrivalLane="107_3way_390to3way_391_0" arrivalPos="85.60" arrivalSpeed="13.76" duration="64.00" routeLength="775.13" waitingTime="0.00" waitingCount="0" stopTime="0.00" timeLoss="8.87" rerouteNo="0" devices="tripinfo_339" vType="DEFAULT_VEHTYPE" speedFactor="1.03" vaporized=""/>
    <tripinfo id="399" depart="45.00" departLane="390_4way_247to4way_227_0" departPos="5.10" departSpeed="0.00" departDelay="0.67" arrival="107.00" arrivalLane="340_4way_203to4way_202_0" arrivalPos="85.60" arrivalSpeed="12.95" duration="62.00" routeLength="675.13" waitingTime="3.00" waitingCount="1" stopTime="0.00" timeLoss="12.38" rerouteNo="0" devices="tripinfo_399" vType="DEFAULT_VEHTYPE" speedFactor="0.99" vaporized=""/>
    <tripinfo id="762" depart="85.00" departLane="666_4way_376to4way_375_0" departPos="5.10" departSpeed="0.00" departDelay="0.34" arrival="108.00" arrivalLane="664_4way_374to4way_373_0" arrivalPos="85.60" arrivalSpeed="14.79" duration="23.00" routeLength="280.50" waitingTime="0.00" waitingCount="0" stopTime="0.00" timeLoss="4.02" rerouteNo="0" devices="tripinfo_762" vType="DEFAULT_VEHTYPE" speedFactor="1.07" vaporized=""/>
    <tripinfo id="906" depart="101.00" departLane="669_4way_58to4way_38_0" departPos="5.10" departSpeed="0.00" departDelay="0.34" arrival="111.00" arrivalLane="669_4way_58to4way_38_0" arrivalPos="85.60" arrivalSpeed="13.02" duration="10.00" routeLength="80.50" waitingTime="0.00" waitingCount="0" stopTime="0.00" timeLoss="3.40" rerouteNo="0" devices="tripinfo_906" vType="DEFAULT_VEHTYPE" speedFactor="0.95" vaporized=""/>
    <tripinfo id="126" depart="14.00" departLane="328_4way_193to4way_213_0" departPos="5.10" departSpeed="0.00" departDelay="0.00" arrival="115.00" arrivalLane="560_4way_313to4way_333_0" arrivalPos="85.60" arrivalSpeed="12.92" duration="101.00" routeLength="680.50" waitingTime="41.00" waitingCount="1" stopTime="0.00" timeLoss="51.75" rerouteNo="0" devices="tripinfo_126" vType="DEFAULT_VEHTYPE" speedFactor="1.01" vaporized=""/>
    <tripinfo id="370" depart="42.00" departLane="30_4way_158to3way_159_0" departPos="5.10" departSpeed="0.00" departDelay="0.89" arrival="117.00" arrivalLane="105_3way_59to3way_39_0" arrivalPos="85.60" arrivalSpeed="12.78" duration="75.00" routeLength="675.13" waitingTime="11.00" waitingCount="1" stopTime="0.00" timeLoss="22.98" rerouteNo="0" devices="tripinfo_370" vType="DEFAULT_VEHTYPE" speedFactor="0.96" vaporized=""/>
    <tripinfo id="331" depart="37.00" departLane="90_4way_362to3way_382_0" departPos="5.10" departSpeed="0.00" departDelay="0.23" arrival="119.00" arrivalLane="99_3way_387to3way_388_0" arrivalPos="85.60" arrivalSpeed="7.14" duration="82.00" routeLength="675.13" waitingTime="1.00" waitingCount="1" stopTime="0.00" timeLoss="29.62" rerouteNo="0" devices="tripinfo_331" vType="DEFAULT_VEHTYPE" speedFactor="0.94" vaporized=""/>
    <tripinfo id="594" depart="66.00" departLane="701_4way_56to4way_76_0" departPos="5.10" departSpeed="0.00" departDelay="0.01" arrival="119.00" arrivalLane="298_4way_176to4way_177_0" arrivalPos="85.60" arrivalSpeed="13.81" duration="53.00" routeLength="675.13" waitingTime="0.00" waitingCount="0" stopTime="0.00" timeLoss="6.86" rerouteNo="0" devices="tripinfo_594" vType="DEFAULT_VEHTYPE" speedFactor="1.07" vaporized=""/>
    <tripinfo id="891" depart="99.00" departLane="51_3way_239to3way_219_0" departPos="5.10" departSpeed="0.00" departDelay="0.01" arrival="120.00" arrivalLane="52_3way_219to4way_218_0" arrivalPos="85.60" arrivalSpeed="12.07" duration="21.00" routeLength="175.13" waitingTime="0.00" waitingCount="0" stopTime="0.00" timeLoss="5.11" rerouteNo="0" devices="tripinfo_891" vType="DEFAULT_VEHTYPE" speedFactor="0.90" vaporized=""/>
    <tripinfo id="973" depart="110.00" departLane="69_3way_4to3way_3_0" departPos="5.10" departSpeed="0.00" departDelay="1.90" arrival="120.00" arrivalLane="69_3way_4to3way_3_0" arrivalPos="85.60" arrivalSpeed="12.59" duration="10.00" routeLength="80.50" waitingTime="0.00" waitingCount="0" stopTime="0.00" timeLoss="3.42" rerouteNo="0" devices="tripinfo_973" vType="DEFAULT_VEHTYPE" speedFactor="0.93" vaporized=""/>
    <tripinfo id="887" depart="99.00" departLane="8_3way_100to3way_80_0" departPos="5.10" departSpeed="0.00" departDelay="0.45" arrival="124.00" arrivalLane="126_3way_60to3way_40_0" arrivalPos="85.60" arrivalSpeed="13.16" duration="25.00" routeLength="280.50" waitingTime="0.00" waitingCount="0" stopTime="0.00" timeLoss="3.77" rerouteNo="0" devices="tripinfo_887" vType="DEFAULT_VEHTYPE" speedFactor="0.96" vaporized=""/>
    <tripinfo id="1047" depart="117.00" departLane="270_4way_162to4way_163_0" departPos="5.10" departSpeed="0.00" departDelay="0.68" arrival="126.00" arrivalLane="270_4way_162to4way_163_0" arrivalPos="85.60" arrivalSpeed="12.72" duration="9.00" routeLength="80.50" waitingTime="0.00" waitingCount="0" stopTime="0.00" timeLoss="2.86" rerouteNo="0" devices="tripinfo_1047" vType="DEFAULT_VEHTYPE" speedFactor="1.01" vaporized=""/>
    <tripinfo id="237" depart="27.00" departLane="365_4way_213to4way_233_0" departPos="5.10" departSpeed="0.00" departDelay="0.67" arrival="130.00" arrivalLane="487_4way_276to4way_277_0" arrivalPos="85.60" arrivalSpeed="6.88" duration="103.00" routeLength="675.13" waitingTime="36.00" waitingCount="2" stopTime="0.00" timeLoss="52.16" rerouteNo="0" devices="tripinfo_237" vType="DEFAULT_VEHTYPE" speedFactor="0.97" vaporized=""/>
    <tripinfo id="278" depart="31.00" departLane="434_4way_26to4way_25_0" departPos="5.10" departSpeed="0.00" departDelay="0.11" arrival="130.00" arrivalLane="375_4way_23to4way_22_0" arrivalPos="85.60" arrivalSpeed="5.23" duration="99.00" routeLength="380.50" waitingTime="56.00" waitingCount="2" stopTime="0.00" timeLoss="68.83" rerouteNo="0" devices="tripinfo_278" vType="DEFAULT_VEHTYPE" speedFactor="0.91" vaporized=""/>
    <tripinfo id="316" depart="36.00" departLane="315_4way_188to4way_187_0" departPos="5.10" departSpeed="0.00" departDelay="0.89" arrival="130.00" arrivalLane="314_4way_186to4way_206_0" arrivalPos="85.60" arrivalSpeed="5.18" duration="94.00" routeLength="275.13" waitingTime="56.00" waitingCount="2" stopTime="0.00" timeLoss="70.71" rerouteNo="0" devices="tripinfo_316" vType="DEFAULT_VEHTYPE" speedFactor="0.89" vaporized=""/>