<?xml version="1.0" encoding="UTF-8"?>

<!-- generated on 2023-08-13 17:26:48 by Eclipse SUMO sumo Version 1.12.0
<configuration xmlns:xsi="http://www.w3.org/2001/XMLSchema-instance" xsi:noNamespaceSchemaLocation="http://sumo.dlr.de/xsd/sumoConfiguration.xsd">

    <input>
        <net-file value="../../data_generation/sq.net.xml"/>
        <route-files value="../../data_generation/sq.rou.xml"/>
    </input>

    <output>
        <tripinfo-output value="tripinfo.xml"/>
        <statistic-output value="statistic.xml"/>
    </output>

    <time>
        <begin value="0"/>
        <end value="3600"/>
    </time>

    <processing>
        <time-to-teleport value="-1"/>
    </processing>

    <traci_server>
        <remote-port value="57435"/>
    </traci_server>

    <random_number>
        <seed value="1395"/>
    </random_number>

    <gui_only>
        <gui-settings-file value="../../data_generation/view_HY_0402.xml"/>
    </gui_only>

</configuration>
-->

<tripinfos xmlns:xsi="http://www.w3.org/2001/XMLSchema-instance" xsi:noNamespaceSchemaLocation="http://sumo.dlr.de/xsd/tripinfo_file.xsd">
    <tripinfo id="22" depart="3.00" departLane="478_4way_291to4way_271_0" departPos="5.10" departSpeed="0.00" departDelay="0.07" arrival="13.00" arrivalLane="478_4way_291to4way_271_0" arrivalPos="85.60" arrivalSpeed="13.25" duration="10.00" routeLength="80.50" waitingTime="0.00" waitingCount="0" stopTime="0.00" timeLoss="3.34" rerouteNo="0" devices="tripinfo_22" vType="DEFAULT_VEHTYPE" speedFactor="1.00" vaporized=""/>
    <tripinfo id="9" depart="2.00" departLane="733_4way_76to4way_75_0" departPos="5.10" departSpeed="0.00" departDelay="0.80" arrival="20.00" arrivalLane="731_4way_75to4way_74_0" arrivalPos="85.60" arrivalSpeed="11.80" duration="18.00" routeLength="180.50" waitingTime="0.00" waitingCount="0" stopTime="0.00" timeLoss="3.23" rerouteNo="0" devices="tripinfo_9" vType="DEFAULT_VEHTYPE" speedFactor="0.91" vaporized=""/>
    <tripinfo id="18" depart="6.00" departLane="359_4way_230to4way_210_0" departPos="5.10" departSpeed="0.00" departDelay="3.60" arrival="26.00" arrivalLane="322_4way_210to4way_190_0" arrivalPos="85.60" arrivalSpeed="8.57" duration="20.00" routeLength="180.50" waitingTime="0.00" waitingCount="0" stopTime="0.00" timeLoss="6.40" rerouteNo="0" devices="tripinfo_18" vType="DEFAULT_VEHTYPE" speedFactor="0.96" vaporized=""/>
    <tripinfo id="160" depart="22.00" departLane="90_3way_382to4way_362_0" departPos="5.10" departSpeed="0.00" departDelay="0.67" arrival="32.00" arrivalLane="90_3way_382to4way_362_0" arrivalPos="85.60" arrivalSpeed="11.94" duration="10.00" routeLength="80.50" waitingTime="0.00" waitingCount="0" stopTime="0.00" timeLoss="3.16" rerouteNo="0" devices="tripinfo_160" vType="DEFAULT_VEHTYPE" speedFactor="0.88" vaporized=""/>
    <tripinfo id="167" depart="23.00" departLane="697_4way_54to4way_74_0" departPos="5.10" departSpeed="0.00" departDelay="0.74" arrival="33.00" arrivalLane="697_4way_54to4way_74_0" arrivalPos="85.60" arrivalSpeed="11.04" duration="10.00" routeLength="80.50" waitingTime="0.00" waitingCount="0" stopTime="0.00" timeLoss="2.96" rerouteNo="0" devices="tripinfo_167" vType="DEFAULT_VEHTYPE" speedFactor="0.85" vaporized=""/>
    <tripinfo id="198" depart="27.00" departLane="540_4way_324to4way_304_0" departPos="5.10" departSpeed="0.00" departDelay="0.61" arrival="37.00" arrivalLane="540_4way_324to4way_304_0" arrivalPos="85.60" arrivalSpeed="11.47" duration="10.00" routeLength="80.50" waitingTime="0.00" waitingCount="0" stopTime="0.00" timeLoss="2.76" rerouteNo="0" devices="tripinfo_198" vType="DEFAULT_VEHTYPE" speedFactor="0.87" vaporized=""/>
    <tripinfo id="118" depart="16.00" departLane="745_4way_87to4way_86_0" departPos="5.10" departSpeed="0.00" departDelay="0.27" arrival="42.00" arrivalLane="159_4way_85to4way_105_0" arrivalPos="85.60" arrivalSpeed="14.10" duration="26.00" routeLength="275.13" waitingTime="0.00" waitingCount="0" stopTime="0.00" timeLoss="5.55" rerouteNo="0" devices="tripinfo_118" vType="DEFAULT_VEHTYPE" speedFactor="1.05" vaporized=""/>
    <tripinfo id="303" depart="41.00" departLane="148_4way_102to4way_103_0" departPos="5.10" departSpeed="0.00" departDelay="0.61" arrival="51.00" arrivalLane="148_4way_102to4way_103_0" arrivalPos="85.60" arrivalSpeed="13.35" duration="10.00" routeLength="80.50" waitingTime="0.00" waitingCount="0" stopTime="0.00" timeLoss="3.44" rerouteNo="0" devices="tripinfo_303" vType="DEFAULT_VEHTYPE" speedFactor="1.02" vaporized=""/>
    <tripinfo id="332" depart="45.00" departLane="542_4way_305to4way_325_0" departPos="5.10" departSpeed="0.00" departDelay="0.74" arrival="55.00" arrivalLane="542_4way_305to4way_325_0" arrivalPos="85.60" arrivalSpeed="11.27" duration="10.00" routeLength="80.50" waitingTime="0.00" waitingCount="0" stopTime="0.00" timeLoss="2.89" rerouteNo="0" devices="tripinfo_332" vType="DEFAULT_VEHTYPE" speedFactor="0.83" vaporized=""/>
    <tripinfo id="203" depart="28.00" departLane="708_4way_62to4way_82_0" departPos="5.10" departSpeed="0.00" departDelay="0.94" arrival="56.00" arrivalLane="742_4way_83to4way_84_0" arrivalPos="85.60" arrivalSpeed="12.04" duration="28.00" routeLength="275.13" waitingTime="0.00" waitingCount="0" stopTime="0.00" timeLoss="5.85" rerouteNo="0" devices="tripinfo_203" vType="DEFAULT_VEHTYPE" speedFactor="0.95" vaporized=""/>
    <tripinfo id="51" depart="7.00" departLane="756_4way_98to4way_97_0" departPos="5.10" departSpeed="0.00" departDelay="0.20" arrival="58.00" arrivalLane="752_4way_94to4way_93_0" arrivalPos="85.60" arrivalSpeed="9.41" duration="51.00" routeLength="480.50" waitingTime="0.00" waitingCount="0" stopTime="0.00" timeLoss="4.33" rerouteNo="0" devices="tripinfo_51" vType="DEFAULT_VEHTYPE" speedFactor="0.74" vaporized=""/>
    <tripinfo id="326" depart="44.00" departLane="18_3way_120to4way_121_0" departPos="5.10" departSpeed="0.00" departDelay="0.54" arrival="61.00" arrivalLane="198_4way_121to4way_122_0" arrivalPos="85.60" arrivalSpeed="13.08" duration="17.00" routeLength="180.50" waitingTime="0.00" waitingCount="0" stopTime="0.00" timeLoss="3.44" rerouteNo="0" devices="tripinfo_326" vType="DEFAULT_VEHTYPE" speedFactor="1.00" vaporized=""/>
    <tripinfo id="149" depart="20.00" departLane="739_4way_78to4way_98_0" departPos="5.10" departSpeed="0.00" departDelay="0.14" arrival="62.00" arrivalLane="267_4way_158to4way_178_0" arrivalPos="85.60" arrivalSpeed="11.98" duration="42.00" routeLength="480.50" waitingTime="0.00" waitingCount="0" stopTime="0.00" timeLoss="4.86" rerouteNo="0" devices="tripinfo_149" vType="DEFAULT_VEHTYPE" speedFactor="0.95" vaporized=""/>
    <tripinfo id="324" depart="44.00" departLane="120_3way_396to4way_376_0" departPos="5.10" departSpeed="0.00" departDelay="0.81" arrival="62.00" arrivalLane="666_4way_376to4way_375_0" arrivalPos="85.60" arrivalSpeed="14.31" duration="18.00" routeLength="175.13" waitingTime="0.00" waitingCount="0" stopTime="0.00" timeLoss="5.43" rerouteNo="0" devices="tripinfo_324" vType="DEFAULT_VEHTYPE" speedFactor="1.05" vaporized=""/>
    <tripinfo id="445" depart="60.00" departLane="465_4way_267to4way_266_0" departPos="5.10" departSpeed="0.00" departDelay="0.68" arrival="70.00" arrivalLane="465_4way_267to4way_266_0" arrivalPos="85.60" arrivalSpeed="13.53" duration="10.00" routeLength="80.50" waitingTime="0.00" waitingCount="0" stopTime="0.00" timeLoss="3.44" rerouteNo="0" devices="tripinfo_445" vType="DEFAULT_VEHTYPE" speedFactor="1.02" vaporized=""/>
    <tripinfo id="351" depart="47.00" departLane="73_3way_339to3way_319_0" departPos="5.10" departSpeed="0.00" departDelay="0.21" arrival="73.00" arrivalLane="67_3way_319to3way_299_0" arrivalPos="85.60" arrivalSpeed="8.44" duration="26.00" routeLength="180.50" waitingTime="1.00" waitingCount="1" stopTime="0.00" timeLoss="10.31" rerouteNo="0" devices="tripinfo_351" vType="DEFAULT_VEHTYPE" speedFactor="0.85" vaporized=""/>
    <tripinfo id="416" depart="56.00" departLane="551_4way_31to4way_32_0" departPos="5.10" departSpeed="0.00" departDelay="0.55" arrival="73.00" arrivalLane="570_4way_32to4way_33_0" arrivalPos="85.60" arrivalSpeed="14.13" duration="17.00" routeLength="180.50" waitingTime="0.00" waitingCount="0" stopTime="0.00" timeLoss="3.56" rerouteNo="0" devices="tripinfo_416" vType="DEFAULT_VEHTYPE" speedFactor="1.04" vaporized=""/>
    <tripinfo id="318" depart="43.00" departLane="109_3way_392to3way_391_0" departPos="5.10" departSpeed="0.00" departDelay="0.61" arrival="75.00" arrivalLane="101_3way_389to3way_388_0" arrivalPos="85.60" arrivalSpeed="13.81" duration="32.00" routeLength="380.50" waitingTime="0.00" waitingCount="0" stopTime="0.00" timeLoss="4.18" rerouteNo="0" devices="tripinfo_318" vType="DEFAULT_VEHTYPE" speedFactor="1.01" vaporized=""/>
    <tripinfo id="27" depart="4.00" departLane="41_3way_180to3way_200_0" departPos="5.10" departSpeed="0.00" departDelay="0.40" arrival="76.00" arrivalLane="54_3way_220to4way_221_0" arrivalPos="85.60" arrivalSpeed="13.54" duration="72.00" routeLength="275.13" waitingTime="44.00" waitingCount="1" stopTime="0.00" timeLoss="51.84" rerouteNo="0" devices="tripinfo_27" vType="DEFAULT_VEHTYPE" speedFactor="1.03" vaporized=""/>
    <tripinfo id="138" depart="19.00" departLane="406_4way_234to4way_254_0" departPos="5.10" departSpeed="0.00" departDelay="0.60" arrival="77.00" arrivalLane="487_4way_276to4way_277_0" arrivalPos="85.60" arrivalSpeed="13.60" duration="58.00" routeLength="475.13" waitingTime="10.00" waitingCount="1" stopTime="0.00" timeLoss="22.95" rerouteNo="0" devices="tripinfo_138" vType="DEFAULT_VEHTYPE" speedFactor="1.00" vaporized=""/>
    <tripinfo id="148" depart="20.00" departLane="118_4way_375to3way_395_0" departPos="5.10" departSpeed="0.00" departDelay="0.27" arrival="77.00" arrivalLane="117_3way_395to3way_396_0" arrivalPos="85.60" arrivalSpeed="14.17" duration="57.00" routeLength="175.13" waitingTime="34.00" waitingCount="1" stopTime="0.00" timeLoss="43.70" rerouteNo="0" devices="tripinfo_148" vType="DEFAULT_VEHTYPE" speedFactor="1.07" vaporized=""/>
    <tripinfo id="189" depart="26.00" departLane="512_4way_30to4way_29_0" departPos="5.10" departSpeed="0.00" departDelay="0.81" arrival="77.00" arrivalLane="474_4way_27to4way_47_0" arrivalPos="85.60" arrivalSpeed="11.98" duration="51.00" routeLength="375.13" waitingTime="11.00" waitingCount="1" stopTime="0.00" timeLoss="20.74" rerouteNo="0" devices="tripinfo_189" vType="DEFAULT_VEHTYPE" speedFactor="0.92" vaporized=""/>
    <tripinfo id="258" depart="35.00" departLane="342_4way_204to4way_203_0" departPos="5.10" departSpeed="0.00" departDelay="0.61" arrival="77.00" arrivalLane="338_4way_202to4way_201_0" arrivalPos="85.60" arrivalSpeed="14.46" duration="42.00" routeLength="280.50" waitingTime="14.00" waitingCount="1" stopTime="0.00" timeLoss="23.36" rerouteNo="0" devices="tripinfo_258" vType="DEFAULT_VEHTYPE" speedFactor="1.12" vaporized=""/>
    <tripinfo id="397" depart="53.00" departLane="372_4way_217to4way_218_0" departPos="5.10" departSpeed="0.00" departDelay="0.08" arrival="77.00" arrivalLane="337_4way_218to4way_198_0" arrivalPos="85.60" arrivalSpeed="14.27" duration="24.00" routeLength="175.13" waitingTime="2.00" waitingCount="1" stopTime="0.00" timeLoss="10.94" rerouteNo="0" devices="tripinfo_397" vType="DEFAULT_VEHTYPE" speedFactor="1.05" vaporized=""/>
    <tripinfo id="115" depart="16.00" departLane="455_4way_261to4way_262_0" departPos="5.10" departSpeed="0.00" departDelay="0.67" arrival="78.00" arrivalLane="380_4way_242to4way_222_0" arrivalPos="85.60" arrivalSpeed="12.03" duration="62.00" routeLength="275.13" waitingTime="28.00" waitingCount="1" stopTime="0.00" timeLoss="38.89" rerouteNo="0" devices="tripinfo_115" vType="DEFAULT_VEHTYPE" speedFactor="0.92" vaporized=""/>
    <tripinfo id="320" depart="43.00" departLane="409_4way_237to4way_236_0" departPos="5.10" departSpeed="0.00" departDelay="0.34" arrival="78.00" arrivalLane="408_4way_235to4way_255_0" arrivalPos="85.60" arrivalSpeed="11.45" duration="35.00" routeLength="275.13" waitingTime="3.00" waitingCount="1" stopTime="0.00" timeLoss="10.96" rerouteNo="0" devices="tripinfo_320" vType="DEFAULT_VEHTYPE" speedFactor="0.88" vaporized=""/>
    <tripinfo id="232" depart="31.00" departLane="8_3way_80to3way_100_0" departPos="5.10" departSpeed="0.00" departDelay="0.07" arrival="79.00" arrivalLane="145_4way_101to4way_102_0" arrivalPos="85.60" arrivalSpeed="14.15" duration="48.00" routeLength="275.13" waitingTime="16.00" waitingCount="1" stopTime="0.00" timeLoss="28.18" rerouteNo="0" devices="tripinfo_232" vType="DEFAULT_VEHTYPE" speedFactor="1.06" vaporized=""/>
    <tripinfo id="257" depart="35.00" departLane="438_4way_252to4way_251_0" departPos="5.10" departSpeed="0.00" departDelay="0.74" arrival="79.00" arrivalLane="437_4way_250to4way_270_0" arrivalPos="85.60" arrivalSpeed="10.37" duration="44.00" routeLength="275.13" waitingTime="11.00" waitingCount="1" stopTime="0.00" timeLoss="18.58" rerouteNo="0" devices="tripinfo_257" vType="DEFAULT_VEHTYPE" speedFactor="0.83" vaporized=""/>
    <tripinfo id="217" depart="29.00" departLane="209_4way_126to4way_146_0" departPos="5.10" departSpeed="0.00" departDelay="0.07" arrival="83.00" arrivalLane="245_4way_147to4way_148_0" arrivalPos="85.60" arrivalSpeed="14.22" duration="54.00" routeLength="275.13" waitingTime="24.00" waitingCount="1" stopTime="0.00" timeLoss="35.21" rerouteNo="0" devices="tripinfo_217" vType="DEFAULT_VEHTYPE" speedFactor="1.12" vaporized=""/>
    <tripinfo id="127" depart="17.00" departLane="78_3way_339to4way_338_0" departPos="5.10" departSpeed="0.00" departDelay="0.07" arrival="85.00" arrivalLane="604_4way_337to4way_336_0" arrivalPos="85.60" arrivalSpeed="12.68" duration="68.00" routeLength="280.50" waitingTime="37.00" waitingCount="1" stopTime="0.00" timeLoss="47.10" rerouteNo="0" devices="tripinfo_127" vType="DEFAULT_VEHTYPE" speedFactor="1.00" vaporized=""/>
    <tripinfo id="421" depart="57.00" departLane="664_4way_374to4way_373_0" departPos="5.10" departSpeed="0.00" departDelay="0.88" arrival="87.00" arrivalLane="112_4way_372to3way_392_0" arrivalPos="85.60" arrivalSpeed="13.73" duration="30.00" routeLength="275.13" waitingTime="0.00" waitingCount="0" stopTime="0.00" timeLoss="9.44" rerouteNo="0" devices="tripinfo_421" vType="DEFAULT_VEHTYPE" speedFactor="0.99" vaporized=""/>
    <tripinfo id="357" depart="48.00" departLane="34_4way_161to3way_160_0" departPos="5.10" departSpeed="0.00" departDelay="0.41" arrival="89.00" arrivalLane="53_3way_220to3way_240_0" arrivalPos="85.60" arrivalSpeed="14.01" duration="41.00" routeLength="475.13" waitingTime="0.00" waitingCount="0" stopTime="0.00" timeLoss="6.66" rerouteNo="0" devices="tripinfo_357" vType="DEFAULT_VEHTYPE" speedFactor="1.04" vaporized=""/>
    <tripinfo id="207" depart="28.00" departLane="377_4way_222to4way_221_0" departPos="5.10" departSpeed="0.00" departDelay="0.41" arrival="90.00" arrivalLane="534_4way_301to4way_321_0" arrivalPos="85.60" arrivalSpeed="14.31" duration="62.00" routeLength="575.13" waitingTime="8.00" waitingCount="1" stopTime="0.00" timeLoss="27.78" rerouteNo="0" devices="tripinfo_207" vType="DEFAULT_VEHTYPE" speedFactor="1.24" vaporized=""/>
    <tripinfo id="531" depart="74.00" departLane="124_3way_5to3way_4_0" departPos="5.10" departSpeed="0.00" departDelay="3.22" arrival="90.00" arrivalLane="69_3way_4to3way_3_0" arrivalPos="85.60" arrivalSpeed="14.51" duration="16.00" routeLength="180.50" waitingTime="0.00" waitingCount="0" stopTime="0.00" timeLoss="3.41" rerouteNo="0" devices="tripinfo_531" vType="DEFAULT_VEHTYPE" speedFactor="1.11" vaporized=""/>
    <tripinfo id="478" depart="64.00" departLane="315_4way_188to4way_187_0" departPos="5.10" departSpeed="0.00" departDelay="0.28" arrival="91.00" arrivalLane="351_4way_207to4way_227_0" arrivalPos="85.60" arrivalSpeed="12.18" duration="27.00" routeLength="275.13" waitingTime="0.00" waitingCount="0" stopTime="0.00" timeLoss="5.51" rerouteNo="0" devices="tripinfo_478" vType="DEFAULT_VEHTYPE" speedFactor="0.96" vaporized=""/>
    <tripinfo id="325" depart="44.00" departLane="547_4way_309to4way_308_0" departPos="5.10" departSpeed="0.00" departDelay="0.68" arrival="92.00" arrivalLane="624_4way_347to4way_367_0" arrivalPos="85.60" arrivalSpeed="13.06" duration="48.00" routeLength="475.13" waitingTime="3.00" waitingCount="1" stopTime="0.00" timeLoss="12.87" rerouteNo="0" devices="tripinfo_325" vType="DEFAULT_VEHTYPE" speedFactor="1.01" vaporized=""/>
    <tripinfo id="610" depart="82.00" departLane="413_4way_238to4way_258_0" departPos="5.10" departSpeed="0.00" departDelay="0.69" arrival="92.00" arrivalLane="413_4way_238to4way_258_0" arrivalPos="85.60" arrivalSpeed="12.39" duration="10.00" routeLength="80.50" waitingTime="0.00" waitingCount="0" stopTime="0.00" timeLoss="2.82" rerouteNo="0" devices="tripinfo_610" vType="DEFAULT_VEHTYPE" speedFactor="0.93" vaporized=""/>
    <tripinfo id="7" depart="1.00" departLane="77_3way_359to3way_339_0" departPos="5.10" departSpeed="0.00" departDelay="0.07" arrival="94.00" arrivalLane="55_3way_259to3way_239_0" arrivalPos="85.60" arrivalSpeed="12.80" duration="93.00" routeLength="580.50" waitingTime="37.00" waitingCount="1" stopTime="0.00" timeLoss="48.24" rerouteNo="0" devices="tripinfo_7" vType="DEFAULT_VEHTYPE" speedFactor="0.95" vaporized=""/>
    <tripinfo id="156" depart="21.00" departLane="81_3way_379to3way_359_0" departPos="5.10" departSpeed="0.00" departDelay="0.20" arrival="94.00" arrivalLane="67_3way_319to3way_299_0" arrivalPos="85.60" arrivalSpeed="12.11" duration="73.00" routeLength="380.50" waitingTime="34.00" waitingCount="1" stopTime="0.00" timeLoss="42.90" rerouteNo="0" devices="tripinfo_156" vType="DEFAULT_VEHTYPE" speedFactor="0.91" vaporized=""/>
    <tripinfo id="197" depart="27.00" departLane="669_4way_58to4way_38_0" departPos="5.10" departSpeed="0.00" departDelay="0.74" arrival="94.00" arrivalLane="23_3way_15to3way_14_0" arrivalPos="85.60" arrivalSpeed="12.92" duration="67.00" routeLength="575.13" waitingTime="13.00" waitingCount="1" stopTime="0.00" timeLoss="24.66" rerouteNo="0" devices="tripinfo_197" vType="DEFAULT_VEHTYPE" speedFactor="1.01" vaporized=""/>
    <tripinfo id="371" depart="50.00" departLane="47_3way_40to3way_20_0" departPos="5.10" departSpeed="0.00" departDelay="0.55" arrival="94.00" arrivalLane="1_3way_1to3way_2_0" arrivalPos="85.60" arrivalSpeed="12.48" duration="44.00" routeLength="383.70" waitingTime="3.00" waitingCount="1" stopTime="0.00" timeLoss="13.12" rerouteNo="0" devices="tripinfo_371" vType="DEFAULT_VEHTYPE" speedFactor="0.92" vaporized=""/>
    <tripinfo id="317" depart="44.00" departLane="669_4way_58to4way_38_0" departPos="5.10" departSpeed="0.00" departDelay="1.74" arrival="95.00" arrivalLane="609_4way_35to4way_34_0" arrivalPos="85.60" arrivalSpeed="11.02" duration="51.00" routeLength="475.13" waitingTime="2.00" waitingCount="1" stopTime="0.00" timeLoss="19.71" rerouteNo="0" devices="tripinfo_317" vType="DEFAULT_VEHTYPE" speedFactor="1.11" vaporized=""/>
    <tripinfo id="93" depart="13.00" departLane="628_4way_369to4way_349_0" departPos="5.10" departSpeed="0.00" departDelay="0.60" arrival="98.00" arrivalLane="547_4way_309to4way_308_0" arrivalPos="85.60" arrivalSpeed="13.50" duration="85.00" routeLength="375.13" waitingTime="43.00" waitingCount="1" stopTime="0.00" timeLoss="56.74" rerouteNo="0" devices="tripinfo_93" vType="DEFAULT_VEHTYPE" speedFactor="1.00" vaporized=""/>
    <tripinfo id="356" depart="48.00" departLane="473_4way_27to4way_28_0" departPos="5.10" departSpeed="0.00" departDelay="0.54" arrival="100.00" arrivalLane="590_4way_33to4way_34_0" arrivalPos="85.60" arrivalSpeed="14.22" duration="52.00" routeLength="680.50" waitingTime="0.00" waitingCount="0" stopTime="0.00" timeLoss="5.53" rerouteNo="0" devices="tripinfo_356" vType="DEFAULT_VEHTYPE" speedFactor="1.06" vaporized=""/>
    <tripinfo id="245" depart="33.00" departLane="512_4way_30to4way_29_0" departPos="5.10" departSpeed="0.00" departDelay="0.34" arrival="105.00" arrivalLane="395_4way_24to4way_23_0" arrivalPos="85.60" arrivalSpeed="11.06" duration="72.00" routeLength="680.50" waitingTime="9.00" waitingCount="1" stopTime="0.00" timeLoss="29.39" rerouteNo="0" devices="tripinfo_245" vType="DEFAULT_VEHTYPE" speedFactor="1.15" vaporized=""/>
    <tripinfo id="68" depart="10.00" departLane="254_4way_151to4way_171_0" departPos="5.10" departSpeed="0.00" departDelay="0.94" arrival="106.00" arrivalLane="432_4way_250to4way_249_0" arrivalPos="85.60" arrivalSpeed="14.79" duration="96.00" routeLength="680.30" waitingTime="37.00" waitingCount="1" stopTime="0.00" timeLoss="49.75" rerouteNo="0" devices="tripinfo_68" vType="DEFAULT_VEHTYPE" speedFactor="1.09" vaporized=""/>
    <tripinfo id="559" depart="75.00" departLane="665_4way_374to4way_375_0" departPos="5.10" departSpeed="0.00" departDelay="0.48" arrival="106.00" arrivalLane="644_4way_376to4way_356_0" arrivalPos="85.60" arrivalSpeed="11.57" duration="31.00" routeLength="275.13" waitingTime="0.00" waitingCount="0" stopTime="0.00" timeLoss="5.89" rerouteNo="0" devices="tripinfo_559" vType="DEFAULT_VEHTYPE" speedFactor="0.85" vaporized=""/>
    <tripinfo id="585" depart="78.00" departLane="344_4way_205to4way_204_0" departPos="5.10" departSpeed="0.00" departDelay="0.02" arrival="107.00" arrivalLane="343_4way_203to4way_223_0" arrivalPos="85.60" arrivalSpeed="11.22" duration="29.00" routeLength="275.13" waitingTime="0.00" waitingCount="0" stopTime="0.00" timeLoss="5.37" rerouteNo="0" devices="tripinfo_585" vType="DEFAULT_VEHTYPE" speedFactor="0.88" vaporized=""/>
    <tripinfo id="430" depart="58.00" departLane="231_4way_137to4way_157_0" departPos="5.10" departSpeed="0.00" departDelay="0.68" arrival="110.00" arrivalLane="412_4way_237to4way_257_0" arrivalPos="85.60" arrivalSpeed="12.49" duration="52.00" routeLength="580.50" waitingTime="0.00" waitingCount="0" stopTime="0.00" timeLoss="4.89" rerouteNo="0" devices="tripinfo_430" vType="DEFAULT_VEHTYPE" speedFactor="0.90" vaporized=""/>
    <tripinfo id="276" depart="37.00" departLane="280_4way_168to4way_167_0" departPos="5.10" departSpeed="0.00" departDelay="0.21" arrival="113.00" arrivalLane="466_4way_266to4way_286_0" arrivalPos="85.60" arrivalSpeed="13.73" duration="76.00" routeLength="775.13" waitingTime="11.00" waitingCount="1" stopTime="0.00" timeLoss="20.43" rerouteNo="0" devices="tripinfo_276" vType="DEFAULT_VEHTYPE" speedFactor="1.02" vaporized=""/>
    <tripinfo id="126" depart="17.00" departLane="328_4way_193to4way_213_0" departPos="5.10" departSpeed="0.00" departDelay="0.20" arrival="115.00" arrivalLane="560_4way_313to4way_333_0" arrivalPos="85.60" arrivalSpeed="13.56" duration="98.00" routeLength="680.50" waitingTime="39.00" waitingCount="1" stopTime="0.00" timeLoss="48.44" rerouteNo="0" devices="tripinfo_126" vType="DEFAULT_VEHTYPE" speedFactor="1.01" vaporized=""/>
    <tripinfo id="331" depart="45.00" departLane="90_4way_362to3way_382_0" departPos="5.10" departSpeed="0.00" departDelay="0.88" arrival="116.00" arrivalLane="99_3way_387to3way_388_0" arrivalPos="85.60" arrivalSpeed="6.88" duration="71.00" routeLength="675.13" waitingTime="0.00" waitingCount="0" stopTime="0.00" timeLoss="18.84" rerouteNo="0" devices="tripinfo_331" vType="DEFAULT_VEHTYPE" speedFactor="0.94" vaporized=""/>
    <tripinfo id="662" depart="89.00" departLane="629_4way_36to4way_35_0" departPos="5.10" departSpeed="0.00" departDelay="0.75" arrival="116.00" arrivalLane="699_4way_55to4way_75_0" arrivalPos="85.60" arrivalSpeed="12.38" duration="27.00" routeLength="275.13" waitingTime="0.00" waitingCount="0" stopTime="0.00" timeLoss="5.51" rerouteNo="0" devices="tripinfo_662" vType="DEFAULT_VEHTYPE" speedFactor="0.98" vaporized=""/>
    <tripinfo id="637" depart="85.00" departLane="327_4way_193to4way_194_0" departPos="5.10" departSpeed="0.00" departDelay="0.09" arrival="121.00" arrivalLane="225_4way_154to4way_134_0" arrivalPos="85.60" arrivalSpeed="12.14" duration="36.00" routeLength="375.13" waitingTime="0.00" waitingCount="0" stopTime="0.00" timeLoss="6.22" rerouteNo="0" devices="tripinfo_637" vType="DEFAULT_VEHTYPE" speedFactor="0.94" vaporized=""/>
    <tripinfo id="684" depart="92.00" departLane="324_4way_211to4way_191_0" departPos="5.10" departSpeed="0.00" departDelay="0.82" arrival="126.00" arrivalLane="327_4way_193to4way_194_0" arrivalPos="85.60" arrivalSpeed="12.97" duration="34.00" routeLength="380.30" waitingTime="0.00" waitingCount="0" stopTime="0.00" timeLoss="5.88" rerouteNo="0" devices="tripinfo_684" vType="DEFAULT_VEHTYPE" speedFactor="1.01" vaporized=""/>
    <tripinfo id="122" depart="17.00" departLane="464_4way_265to4way_285_0" departPos="5.10" departSpeed="0.00" departDelay="0.74" arrival="130.00" arrivalLane="516_4way_291to4way_292_0" arrivalPos="85.60" arrivalSpeed="5.96" duration="113.00" routeLength="775.13" waitingTime="49.00" waitingCount="2" stopTime="0.00" timeLoss="66.03" rerouteNo="0" devices="tripinfo_122" vType="DEFAULT_VEHTYPE" speedFactor="1.20" vaporized=""/>
    <tripinfo id="278" depart="38.00" departLane="434_4way_26to4way_25_0" departPos="5.10" departSpeed="0.00" departDelay="0.94" arrival="130.00" arrivalLane="375_4way_23to4way_22_0" arrivalPos="85.60" arrivalSpeed="5.50" duration="92.00" routeLength="380.50" waitingTime="45.00" waitingCount="2" stopTime="0.00" timeLoss="61.86" rerouteNo="0" devices="tripinfo_278" vType="DEFAULT_VEHTYPE" speedFactor="0.91" vaporized=""/>
    <tripinfo id="418" depart="56.00" departLane="131_3way_59to4way_58_0" departPos="5.10" departSpeed="0.00" departDelay="0.28" arrival="130.00" arrivalLane="703_4way_57to4way_77_0" arrivalPos="85.60" arrivalSpeed="4.94" duration="74.00" routeLength="275.13" waitingTime="38.00" waitingCount="1" stopTime="0.00" timeLoss="47.96" rerouteNo="0" devices="tripinfo_418" vType="DEFAULT_VEHTYPE" speedFactor="0.79" vaporized=""/>
    <tripinfo id="906" depart="121.00" departLane="669_4way_58to4way_38_0" departPos="5.10" departSpeed="0.00" departDelay="0.23" arrival="130.00" arrivalLane="669_4way_58to4way_38_0" arrivalPos="85.60" arrivalSpeed="12.12" duration="9.00" routeLength="80.50" waitingTime="0.00" waitingCount="0" stopTime="0.00" timeLoss="2.88" rerouteNo="0" devices="tripinfo_906" vType="DEFAULT_VEHTYPE" speedFactor="0.95" vaporized=""/>
    <tripinfo id="233" depart="32.00" departLane="460_4way_263to4way_283_0" departPos="5.10" departSpeed="0.00" departDelay="0.94" arrival="133.00" arrivalLane="580_4way_325to4way_326_0" arrivalPos="85.60" arrivalSpeed="6.24" duration="101.00" routeLength="575.13" waitingTime="33.00" waitingCount="2" stopTime="0.00" timeLoss="50.47" rerouteNo="0" devices="tripinfo_233" vType="DEFAULT_VEHTYPE" speedFactor="0.83" vaporized=""/>
    <tripinfo id="420" depart="56.00" departLane="142_3way_80to4way_81_0" departPos="5.10" departSpeed="0.00" departDelay="0.01" arrival="133.00" arrivalLane="744_4way_85to4way_86_0" arrivalPos="85.60" arrivalSpeed="7.28" duration="77.00" routeLength="580.50" waitingTime="18.00" waitingCount="1" stopTime="0.00" timeLoss="33.96" rerouteNo="0" devices="tripinfo_420" vType="DEFAULT_VEHTYPE" speedFactor="0.98" vaporized=""/>
    <tripinfo id="281" depart="38.00" departLane="192_4way_96to4way_116_0" departPos="5.10" departSpeed="0.00" departDelay="0.54" arrival="135.00" arrivalLane="411_4way_237to4way_238_0" arrivalPos="85.60" arrivalSpeed="13.00" duration="97.00" routeLength="875.13" waitingTime="17.00" waitingCount="1" stopTime="0.00" timeLoss="29.90" rerouteNo="0" devices="tripinfo_281" vType="DEFAULT_VEHTYPE" speedFactor="0.95" vaporized=""/>
    <tripinfo id="337" depart="45.00" departLane="219_4way_151to4way_131_0" departPos="5.10" departSpeed="0.00" departDelay="0.08" arrival="136.00" arrivalLane="699_4way_75to4way_55_0" arrivalPos="85.60" arrivalSpeed="15.46" duration="91.00" routeLength="874.93" waitingTime="21.00" waitingCount="1" stopTime="0.00" timeLoss="36.73" rerouteNo="0" devices="tripinfo_337" vType="DEFAULT_VEHTYPE" speedFactor="1.19" vaporized=""/>
    <tripinfo id="732" depart="98.00" departLane="633_4way_351to4way_352_0" departPos="5.10" departSpeed="0.00" departDelay="0.42" arrival="136.00" arrivalLane="635_4way_352to4way_353_0" arrivalPos="85.60" arrivalSpeed="15.87" duration="38.00" routeLength="180.50" waitingTime="18.00" waitingCount="1" stopTime="0.00" timeLoss="26.97" rerouteNo="0" devices="tripinfo_732" vType="DEFAULT_VEHTYPE" speedFactor="1.22" vaporized=""/>
    <tripinfo id="779" depart="104.00" departLane="737_4way_78to4way_77_0" departPos="5.10" departSpeed="0.00" departDelay="0.16" arrival="136.00" arrivalLane="195_4way_97to4way_117_0" arrivalPos="85.60" arrivalSpeed="14.10" duration="32.00" routeLength="275.13" waitingTime="3.00" waitingCount="1" stopTime="0.00" timeLoss="12.41" rerouteNo="0" devices="tripinfo_779" vType="DEFAULT_VEHTYPE" speedFactor="1.04" vaporized=""/>
    <tripinfo id="104" depart="14.00" departLane="527_4way_296to4way_316_0" departPos="5.10" departSpeed="0.00" departDelay="0.14" arrival="137.00" arrivalLane="547_4way_309to4way_308_0" arrivalPos="85.60" arrivalSpeed="12.47" duration="123.00" routeLength="880.30" waitingTime="36.00" waitingCount="2" stopTime="0.00" timeLoss="55.18" rerouteNo="0" devices="tripinfo_104" vType="DEFAULT_VEHTYPE" speedFactor="0.95" vaporized=""/>
    <tripinfo id="158" depart="22.00" departLane="166_4way_109to4way_108_0" departPos="5.10" departSpeed="0.00" departDelay="0.94" arrival="137.00" arrivalLane="160_4way_107to4way_106_0" arrivalPos="85.60" arrivalSpeed="12.62" duration="115.00" routeLength="280.50" waitingTime="85.00" waitingCount="1" stopTime="0.00" timeLoss="93.78" rerouteNo="0" devices="tripinfo_158" vType="DEFAULT_VEHTYPE" speedFactor="0.96" vaporized=""/>