<?xml version="1.0" encoding="UTF-8"?>

<!-- generated on 2023-07-27 17:16:01 by Eclipse SUMO sumo Version 1.12.0
<configuration xmlns:xsi="http://www.w3.org/2001/XMLSchema-instance" xsi:noNamespaceSchemaLocation="http://sumo.dlr.de/xsd/sumoConfiguration.xsd">

    <input>
        <net-file value="../../data_generation/sq.net.xml"/>
        <route-files value="../../data_generation/sq.rou.xml"/>
    </input>

    <output>
        <tripinfo-output value="tripinfo.xml"/>
        <statistic-output value="statistic.xml"/>
    </output>

    <time>
        <begin value="0"/>
        <end value="3600"/>
    </time>

    <processing>
        <time-to-teleport value="-1"/>
    </processing>

    <traci_server>
        <remote-port value="57641"/>
    </traci_server>

    <random_number>
        <seed value="1395"/>
    </random_number>

    <gui_only>
        <gui-settings-file value="../../data_generation/view_HY_0402.xml"/>
    </gui_only>

</configuration>
-->

<tripinfos xmlns:xsi="http://www.w3.org/2001/XMLSchema-instance" xsi:noNamespaceSchemaLocation="http://sumo.dlr.de/xsd/tripinfo_file.xsd">
    <tripinfo id="15" depart="5.00" departLane="80_4way_9to4way_8_0" departPos="5.10" departSpeed="0.00" departDelay="0.24" arrival="14.00" arrivalLane="80_4way_9to4way_8_0" arrivalPos="85.60" arrivalSpeed="14.18" duration="9.00" routeLength="80.50" waitingTime="0.00" waitingCount="0" stopTime="0.00" timeLoss="3.44" rerouteNo="0" devices="tripinfo_15" vType="DEFAULT_VEHTYPE" speedFactor="1.05" vaporized=""/>
    <tripinfo id="12" depart="4.00" departLane="17_4way_26to3way_27_0" departPos="5.10" departSpeed="0.00" departDelay="0.19" arrival="22.00" arrivalLane="12_3way_27to3way_20_0" arrivalPos="85.60" arrivalSpeed="15.13" duration="18.00" routeLength="175.13" waitingTime="0.00" waitingCount="0" stopTime="0.00" timeLoss="5.72" rerouteNo="0" devices="tripinfo_12" vType="DEFAULT_VEHTYPE" speedFactor="1.16" vaporized=""/>
    <tripinfo id="14" depart="5.00" departLane="35_4way_38to3way_45_0" departPos="5.10" departSpeed="0.00" departDelay="0.56" arrival="24.00" arrivalLane="34_3way_45to3way_46_0" arrivalPos="85.60" arrivalSpeed="12.68" duration="19.00" routeLength="175.13" waitingTime="0.00" waitingCount="0" stopTime="0.00" timeLoss="4.69" rerouteNo="0" devices="tripinfo_14" vType="DEFAULT_VEHTYPE" speedFactor="0.95" vaporized=""/>
    <tripinfo id="19" depart="7.00" departLane="21_3way_3to4way_10_0" departPos="5.10" departSpeed="0.00" departDelay="0.97" arrival="26.00" arrivalLane="42_4way_10to4way_17_0" arrivalPos="85.60" arrivalSpeed="12.01" duration="19.00" routeLength="180.50" waitingTime="0.00" waitingCount="0" stopTime="0.00" timeLoss="3.73" rerouteNo="0" devices="tripinfo_19" vType="DEFAULT_VEHTYPE" speedFactor="0.89" vaporized=""/>
    <tripinfo id="38" depart="13.00" departLane="42_4way_17to4way_10_0" departPos="5.10" departSpeed="0.00" departDelay="0.94" arrival="30.00" arrivalLane="21_4way_10to3way_3_0" arrivalPos="85.60" arrivalSpeed="12.84" duration="17.00" routeLength="180.50" waitingTime="0.00" waitingCount="0" stopTime="0.00" timeLoss="3.25" rerouteNo="0" devices="tripinfo_38" vType="DEFAULT_VEHTYPE" speedFactor="1.00" vaporized=""/>
    <tripinfo id="64" depart="21.00" departLane="52_4way_16to4way_9_0" departPos="5.10" departSpeed="0.00" departDelay="0.69" arrival="31.00" arrivalLane="52_4way_16to4way_9_0" arrivalPos="85.60" arrivalSpeed="12.09" duration="10.00" routeLength="80.50" waitingTime="0.00" waitingCount="0" stopTime="0.00" timeLoss="3.20" rerouteNo="0" devices="tripinfo_64" vType="DEFAULT_VEHTYPE" speedFactor="0.96" vaporized=""/>
    <tripinfo id="61" depart="23.00" departLane="33_3way_44to4way_37_0" departPos="5.10" departSpeed="0.00" departDelay="3.64" arrival="32.00" arrivalLane="33_3way_44to4way_37_0" arrivalPos="85.60" arrivalSpeed="12.92" duration="9.00" routeLength="80.50" waitingTime="0.00" waitingCount="0" stopTime="0.00" timeLoss="3.06" rerouteNo="0" devices="tripinfo_61" vType="DEFAULT_VEHTYPE" speedFactor="1.01" vaporized=""/>
    <tripinfo id="21" depart="7.00" departLane="18_3way_28to3way_35_0" departPos="5.10" departSpeed="0.00" departDelay="0.33" arrival="35.00" arrivalLane="24_3way_35to3way_43_0" arrivalPos="182.40" arrivalSpeed="11.27" duration="28.00" routeLength="277.30" waitingTime="0.00" waitingCount="0" stopTime="0.00" timeLoss="3.56" rerouteNo="0" devices="tripinfo_21" vType="DEFAULT_VEHTYPE" speedFactor="0.82" vaporized=""/>
    <tripinfo id="69" depart="26.00" departLane="53_4way_17to4way_18_0" departPos="5.10" departSpeed="0.00" departDelay="4.10" arrival="36.00" arrivalLane="53_4way_17to4way_18_0" arrivalPos="85.60" arrivalSpeed="10.92" duration="10.00" routeLength="80.50" waitingTime="0.00" waitingCount="0" stopTime="0.00" timeLoss="2.78" rerouteNo="0" devices="tripinfo_69" vType="DEFAULT_VEHTYPE" speedFactor="0.82" vaporized=""/>
    <tripinfo id="79" depart="27.00" departLane="73_4way_32to4way_33_0" departPos="5.10" departSpeed="0.00" departDelay="1.92" arrival="37.00" arrivalLane="73_4way_32to4way_33_0" arrivalPos="85.60" arrivalSpeed="11.19" duration="10.00" routeLength="80.50" waitingTime="0.00" waitingCount="0" stopTime="0.00" timeLoss="3.21" rerouteNo="0" devices="tripinfo_79" vType="DEFAULT_VEHTYPE" speedFactor="0.90" vaporized=""/>
    <tripinfo id="95" depart="31.00" departLane="36_3way_46to3way_47_0" departPos="5.10" departSpeed="0.00" departDelay="0.85" arrival="41.00" arrivalLane="36_3way_46to3way_47_0" arrivalPos="85.60" arrivalSpeed="11.13" duration="10.00" routeLength="80.50" waitingTime="0.00" waitingCount="0" stopTime="0.00" timeLoss="2.69" rerouteNo="0" devices="tripinfo_95" vType="DEFAULT_VEHTYPE" speedFactor="0.88" vaporized=""/>
    <tripinfo id="102" depart="33.00" departLane="29_3way_41to4way_40_0" departPos="5.10" departSpeed="0.00" departDelay="0.62" arrival="43.00" arrivalLane="29_3way_41to4way_40_0" arrivalPos="85.60" arrivalSpeed="13.36" duration="10.00" routeLength="80.50" waitingTime="0.00" waitingCount="0" stopTime="0.00" timeLoss="3.86" rerouteNo="0" devices="tripinfo_102" vType="DEFAULT_VEHTYPE" speedFactor="1.05" vaporized=""/>
    <tripinfo id="70" depart="23.00" departLane="46_4way_19to4way_12_0" departPos="5.10" departSpeed="0.00" departDelay="0.78" arrival="44.00" arrivalLane="39_4way_12to3way_5_0" arrivalPos="85.60" arrivalSpeed="10.04" duration="21.00" routeLength="180.50" waitingTime="0.00" waitingCount="0" stopTime="0.00" timeLoss="3.26" rerouteNo="0" devices="tripinfo_70" vType="DEFAULT_VEHTYPE" speedFactor="0.75" vaporized=""/>
    <tripinfo id="100" depart="32.00" departLane="80_4way_8to4way_9_0" departPos="5.10" departSpeed="0.00" departDelay="0.26" arrival="47.00" arrivalLane="43_4way_9to4way_10_0" arrivalPos="85.60" arrivalSpeed="16.09" duration="15.00" routeLength="180.50" waitingTime="0.00" waitingCount="0" stopTime="0.00" timeLoss="3.50" rerouteNo="0" devices="tripinfo_100" vType="DEFAULT_VEHTYPE" speedFactor="1.20" vaporized=""/>
    <tripinfo id="123" depart="41.00" departLane="72_4way_31to4way_38_0" departPos="5.10" departSpeed="0.00" departDelay="1.96" arrival="50.00" arrivalLane="72_4way_31to4way_38_0" arrivalPos="85.60" arrivalSpeed="13.76" duration="9.00" routeLength="80.50" waitingTime="0.00" waitingCount="0" stopTime="0.00" timeLoss="3.21" rerouteNo="0" devices="tripinfo_123" vType="DEFAULT_VEHTYPE" speedFactor="1.06" vaporized=""/>
    <tripinfo id="56" depart="18.00" departLane="54_4way_17to4way_24_0" departPos="5.10" departSpeed="0.00" departDelay="0.23" arrival="51.00" arrivalLane="78_4way_38to4way_39_0" arrivalPos="85.60" arrivalSpeed="12.89" duration="33.00" routeLength="375.13" waitingTime="0.00" waitingCount="0" stopTime="0.00" timeLoss="5.57" rerouteNo="0" devices="tripinfo_56" vType="DEFAULT_VEHTYPE" speedFactor="1.02" vaporized=""/>
    <tripinfo id="62" depart="20.00" departLane="8_3way_7to3way_14_0" departPos="5.10" departSpeed="0.00" departDelay="0.32" arrival="52.00" arrivalLane="58_4way_22to4way_23_0" arrivalPos="85.60" arrivalSpeed="14.24" duration="32.00" routeLength="375.13" waitingTime="0.00" waitingCount="0" stopTime="0.00" timeLoss="5.47" rerouteNo="0" devices="tripinfo_62" vType="DEFAULT_VEHTYPE" speedFactor="1.05" vaporized=""/>
    <tripinfo id="47" depart="15.00" departLane="35_3way_45to4way_38_0" departPos="5.10" departSpeed="0.00" departDelay="0.08" arrival="59.00" arrivalLane="42_4way_17to4way_10_0" arrivalPos="85.60" arrivalSpeed="11.95" duration="44.00" routeLength="480.50" waitingTime="0.00" waitingCount="0" stopTime="0.00" timeLoss="4.80" rerouteNo="0" devices="tripinfo_47" vType="DEFAULT_VEHTYPE" speedFactor="0.90" vaporized=""/>
    <tripinfo id="152" depart="49.00" departLane="26_3way_5to3way_4_0" departPos="5.10" departSpeed="0.00" departDelay="0.75" arrival="59.00" arrivalLane="26_3way_5to3way_4_0" arrivalPos="85.60" arrivalSpeed="11.73" duration="10.00" routeLength="80.50" waitingTime="0.00" waitingCount="0" stopTime="0.00" timeLoss="2.74" rerouteNo="0" devices="tripinfo_152" vType="DEFAULT_VEHTYPE" speedFactor="0.89" vaporized=""/>
    <tripinfo id="159" depart="53.00" departLane="42_4way_17to4way_10_0" departPos="5.10" departSpeed="0.00" departDelay="2.53" arrival="63.00" arrivalLane="42_4way_17to4way_10_0" arrivalPos="85.60" arrivalSpeed="13.76" duration="10.00" routeLength="80.50" waitingTime="0.00" waitingCount="0" stopTime="0.00" timeLoss="3.46" rerouteNo="0" devices="tripinfo_159" vType="DEFAULT_VEHTYPE" speedFactor="0.99" vaporized=""/>
    <tripinfo id="50" depart="19.00" departLane="52_4way_9to4way_16_0" departPos="5.10" departSpeed="0.00" departDelay="3.13" arrival="70.00" arrivalLane="52_4way_9to4way_16_0" arrivalPos="85.60" arrivalSpeed="5.88" duration="51.00" routeLength="80.50" waitingTime="37.00" waitingCount="1" stopTime="0.00" timeLoss="45.13" rerouteNo="0" devices="tripinfo_50" vType="DEFAULT_VEHTYPE" speedFactor="1.01" vaporized=""/>
    <tripinfo id="132" depart="42.00" departLane="79_4way_39to4way_40_0" departPos="5.10" departSpeed="0.00" departDelay="0.10" arrival="70.00" arrivalLane="75_4way_40to4way_33_0" arrivalPos="85.60" arrivalSpeed="5.01" duration="28.00" routeLength="175.13" waitingTime="1.00" waitingCount="1" stopTime="0.00" timeLoss="12.36" rerouteNo="0" devices="tripinfo_132" vType="DEFAULT_VEHTYPE" speedFactor="0.86" vaporized=""/>
    <tripinfo id="155" depart="50.00" departLane="63_4way_24to4way_31_0" departPos="5.10" departSpeed="0.00" departDelay="0.80" arrival="70.00" arrivalLane="71_4way_31to4way_32_0" arrivalPos="85.60" arrivalSpeed="12.87" duration="20.00" routeLength="175.13" waitingTime="0.00" waitingCount="0" stopTime="0.00" timeLoss="4.98" rerouteNo="0" devices="tripinfo_155" vType="DEFAULT_VEHTYPE" speedFactor="0.94" vaporized=""/>
    <tripinfo id="93" depart="30.00" departLane="17_4way_26to3way_27_0" departPos="5.10" departSpeed="0.00" departDelay="0.48" arrival="71.00" arrivalLane="16_3way_27to3way_34_0" arrivalPos="85.60" arrivalSpeed="6.33" duration="41.00" routeLength="180.29" waitingTime="17.00" waitingCount="1" stopTime="0.00" timeLoss="26.92" rerouteNo="0" devices="tripinfo_93" vType="DEFAULT_VEHTYPE" speedFactor="1.00" vaporized=""/>
    <tripinfo id="194" depart="62.00" departLane="18_3way_28to3way_35_0" departPos="5.10" departSpeed="0.00" departDelay="0.42" arrival="71.00" arrivalLane="18_3way_28to3way_35_0" arrivalPos="85.60" arrivalSpeed="14.36" duration="9.00" routeLength="80.50" waitingTime="0.00" waitingCount="0" stopTime="0.00" timeLoss="3.55" rerouteNo="0" devices="tripinfo_194" vType="DEFAULT_VEHTYPE" speedFactor="1.10" vaporized=""/>
    <tripinfo id="18" depart="6.00" departLane="8_3way_7to3way_14_0" departPos="5.10" departSpeed="0.00" departDelay="0.29" arrival="72.00" arrivalLane="14_3way_21to3way_28_0" arrivalPos="85.60" arrivalSpeed="7.36" duration="66.00" routeLength="280.50" waitingTime="35.00" waitingCount="1" stopTime="0.00" timeLoss="44.77" rerouteNo="0" devices="tripinfo_18" vType="DEFAULT_VEHTYPE" speedFactor="0.96" vaporized=""/>
    <tripinfo id="109" depart="35.00" departLane="17_4way_26to3way_27_0" departPos="5.10" departSpeed="0.00" departDelay="0.40" arrival="73.00" arrivalLane="16_3way_27to3way_34_0" arrivalPos="85.60" arrivalSpeed="8.42" duration="38.00" routeLength="180.29" waitingTime="12.00" waitingCount="1" stopTime="0.00" timeLoss="24.33" rerouteNo="0" devices="tripinfo_109" vType="DEFAULT_VEHTYPE" speedFactor="1.04" vaporized=""/>
    <tripinfo id="99" depart="32.00" departLane="20_3way_4to3way_3_0" departPos="5.10" departSpeed="0.00" departDelay="0.58" arrival="74.00" arrivalLane="10_3way_3to3way_2_0" arrivalPos="85.60" arrivalSpeed="9.18" duration="42.00" routeLength="180.50" waitingTime="19.00" waitingCount="1" stopTime="0.00" timeLoss="28.61" rerouteNo="0" devices="tripinfo_99" vType="DEFAULT_VEHTYPE" speedFactor="0.97" vaporized=""/>
    <tripinfo id="57" depart="20.00" departLane="58_4way_22to4way_23_0" departPos="5.10" departSpeed="0.00" departDelay="1.91" arrival="75.00" arrivalLane="60_4way_23to4way_24_0" arrivalPos="85.60" arrivalSpeed="10.08" duration="55.00" routeLength="180.50" waitingTime="29.00" waitingCount="1" stopTime="0.00" timeLoss="40.97" rerouteNo="0" devices="tripinfo_57" vType="DEFAULT_VEHTYPE" speedFactor="0.97" vaporized=""/>
    <tripinfo id="206" depart="66.00" departLane="75_4way_40to4way_33_0" departPos="5.10" departSpeed="0.00" departDelay="0.62" arrival="75.00" arrivalLane="75_4way_40to4way_33_0" arrivalPos="85.60" arrivalSpeed="12.25" duration="9.00" routeLength="80.50" waitingTime="0.00" waitingCount="0" stopTime="0.00" timeLoss="2.55" rerouteNo="0" devices="tripinfo_206" vType="DEFAULT_VEHTYPE" speedFactor="0.92" vaporized=""/>
    <tripinfo id="80" depart="26.00" departLane="14_3way_28to3way_21_0" departPos="5.10" departSpeed="0.00" departDelay="0.61" arrival="76.00" arrivalLane="2_3way_7to3way_1_0" arrivalPos="188.80" arrivalSpeed="10.67" duration="50.00" routeLength="483.70" waitingTime="0.00" waitingCount="0" stopTime="0.00" timeLoss="4.66" rerouteNo="0" devices="tripinfo_80" vType="DEFAULT_VEHTYPE" speedFactor="0.78" vaporized=""/>
    <tripinfo id="106" depart="34.00" departLane="56_4way_25to4way_18_0" departPos="5.10" departSpeed="0.00" departDelay="0.36" arrival="76.00" arrivalLane="50_4way_17to4way_16_0" arrivalPos="85.60" arrivalSpeed="15.91" duration="42.00" routeLength="275.13" waitingTime="11.00" waitingCount="1" stopTime="0.00" timeLoss="24.28" rerouteNo="0" devices="tripinfo_106" vType="DEFAULT_VEHTYPE" speedFactor="1.16" vaporized=""/>
    <tripinfo id="107" depart="34.00" departLane="74_4way_39to4way_32_0" departPos="5.10" departSpeed="0.00" departDelay="0.04" arrival="76.00" arrivalLane="69_4way_31to4way_30_0" arrivalPos="85.60" arrivalSpeed="14.49" duration="42.00" routeLength="275.13" waitingTime="11.00" waitingCount="1" stopTime="0.00" timeLoss="23.13" rerouteNo="0" devices="tripinfo_107" vType="DEFAULT_VEHTYPE" speedFactor="1.10" vaporized=""/>
    <tripinfo id="13" depart="5.00" departLane="7_3way_14to3way_21_0" departPos="5.10" departSpeed="0.00" departDelay="0.87" arrival="77.00" arrivalLane="19_3way_28to4way_29_0" arrivalPos="85.60" arrivalSpeed="12.74" duration="72.00" routeLength="275.13" waitingTime="42.00" waitingCount="1" stopTime="0.00" timeLoss="50.43" rerouteNo="0" devices="tripinfo_13" vType="DEFAULT_VEHTYPE" speedFactor="0.98" vaporized=""/>
    <tripinfo id="22" depart="7.00" departLane="40_3way_7to4way_8_0" departPos="5.10" departSpeed="0.00" departDelay="0.02" arrival="77.00" arrivalLane="80_4way_8to4way_9_0" arrivalPos="85.60" arrivalSpeed="12.99" duration="70.00" routeLength="180.50" waitingTime="48.00" waitingCount="1" stopTime="0.00" timeLoss="56.40" rerouteNo="0" devices="tripinfo_22" vType="DEFAULT_VEHTYPE" speedFactor="1.00" vaporized=""/>
    <tripinfo id="24" depart="8.00" departLane="16_3way_27to3way_34_0" departPos="5.10" departSpeed="0.00" departDelay="0.38" arrival="77.00" arrivalLane="22_3way_34to3way_41_0" arrivalPos="85.60" arrivalSpeed="13.51" duration="69.00" routeLength="180.50" waitingTime="47.00" waitingCount="1" stopTime="0.00" timeLoss="55.42" rerouteNo="0" devices="tripinfo_24" vType="DEFAULT_VEHTYPE" speedFactor="0.97" vaporized=""/>
    <tripinfo id="42" depart="14.00" departLane="42_4way_10to4way_17_0" departPos="5.10" departSpeed="0.00" departDelay="0.67" arrival="77.00" arrivalLane="30_3way_44to3way_43_0" arrivalPos="85.60" arrivalSpeed="13.39" duration="63.00" routeLength="680.29" waitingTime="0.00" waitingCount="0" stopTime="0.00" timeLoss="12.93" rerouteNo="0" devices="tripinfo_42" vType="DEFAULT_VEHTYPE" speedFactor="0.99" vaporized=""/>
    <tripinfo id="45" depart="15.00" departLane="3_3way_1to4way_8_0" departPos="5.10" departSpeed="0.00" departDelay="0.72" arrival="77.00" arrivalLane="47_4way_15to4way_16_0" arrivalPos="85.60" arrivalSpeed="13.44" duration="62.00" routeLength="275.13" waitingTime="31.00" waitingCount="1" stopTime="0.00" timeLoss="41.17" rerouteNo="0" devices="tripinfo_45" vType="DEFAULT_VEHTYPE" speedFactor="1.00" vaporized=""/>
    <tripinfo id="185" depart="59.00" departLane="52_4way_16to4way_9_0" departPos="5.10" departSpeed="0.00" departDelay="0.28" arrival="77.00" arrivalLane="80_4way_9to4way_8_0" arrivalPos="85.60" arrivalSpeed="15.75" duration="18.00" routeLength="175.13" waitingTime="0.00" waitingCount="0" stopTime="0.00" timeLoss="6.06" rerouteNo="0" devices="tripinfo_185" vType="DEFAULT_VEHTYPE" speedFactor="1.18" vaporized=""/>
    <tripinfo id="192" depart="61.00" departLane="74_4way_32to4way_39_0" departPos="5.10" departSpeed="0.00" departDelay="0.06" arrival="77.00" arrivalLane="37_4way_39to3way_46_0" arrivalPos="85.60" arrivalSpeed="15.51" duration="16.00" routeLength="180.50" waitingTime="0.00" waitingCount="0" stopTime="0.00" timeLoss="3.63" rerouteNo="0" devices="tripinfo_192" vType="DEFAULT_VEHTYPE" speedFactor="1.12" vaporized=""/>
    <tripinfo id="48" depart="16.00" departLane="73_4way_33to4way_32_0" departPos="5.10" departSpeed="0.00" departDelay="0.76" arrival="79.00" arrivalLane="71_4way_32to4way_31_0" arrivalPos="85.60" arrivalSpeed="10.72" duration="63.00" routeLength="180.50" waitingTime="38.00" waitingCount="1" stopTime="0.00" timeLoss="46.72" rerouteNo="0" devices="tripinfo_48" vType="DEFAULT_VEHTYPE" speedFactor="0.83" vaporized=""/>
    <tripinfo id="129" depart="41.00" departLane="41_4way_11to4way_10_0" departPos="5.10" departSpeed="0.00" departDelay="0.05" arrival="79.00" arrivalLane="41_4way_11to4way_10_0" arrivalPos="85.60" arrivalSpeed="11.78" duration="38.00" routeLength="80.50" waitingTime="21.00" waitingCount="1" stopTime="0.00" timeLoss="32.35" rerouteNo="0" devices="tripinfo_129" vType="DEFAULT_VEHTYPE" speedFactor="1.14" vaporized=""/>
    <tripinfo id="188" depart="60.00" departLane="44_4way_12to4way_11_0" departPos="5.10" departSpeed="0.00" departDelay="0.33" arrival="79.00" arrivalLane="45_4way_11to4way_18_0" arrivalPos="85.60" arrivalSpeed="13.74" duration="19.00" routeLength="175.13" waitingTime="0.00" waitingCount="0" stopTime="0.00" timeLoss="5.13" rerouteNo="0" devices="tripinfo_188" vType="DEFAULT_VEHTYPE" speedFactor="1.00" vaporized=""/>
    <tripinfo id="27" depart="9.00" departLane="5_3way_5to3way_13_0" departPos="5.10" departSpeed="0.00" departDelay="0.43" arrival="80.00" arrivalLane="12_3way_20to3way_27_0" arrivalPos="85.60" arrivalSpeed="13.84" duration="71.00" routeLength="383.70" waitingTime="31.00" waitingCount="1" stopTime="0.00" timeLoss="43.16" rerouteNo="0" devices="tripinfo_27" vType="DEFAULT_VEHTYPE" speedFactor="1.03" vaporized=""/>
    <tripinfo id="78" depart="25.00" departLane="65_4way_32to4way_25_0" departPos="5.10" departSpeed="0.00" departDelay="0.24" arrival="81.00" arrivalLane="62_4way_25to4way_24_0" arrivalPos="85.60" arrivalSpeed="13.03" duration="56.00" routeLength="175.13" waitingTime="32.00" waitingCount="1" stopTime="0.00" timeLoss="42.46" rerouteNo="0" devices="tripinfo_78" vType="DEFAULT_VEHTYPE" speedFactor="1.03" vaporized=""/>
    <tripinfo id="112" depart="36.00" departLane="28_3way_41to3way_47_0" departPos="5.10" departSpeed="0.00" departDelay="0.45" arrival="81.00" arrivalLane="36_3way_47to3way_46_0" arrivalPos="85.60" arrivalSpeed="12.31" duration="45.00" routeLength="283.70" waitingTime="13.00" waitingCount="1" stopTime="0.00" timeLoss="22.82" rerouteNo="0" devices="tripinfo_112" vType="DEFAULT_VEHTYPE" speedFactor="0.95" vaporized=""/>
    <tripinfo id="119" depart="40.00" departLane="15_3way_21to4way_22_0" departPos="5.10" departSpeed="0.00" departDelay="2.23" arrival="81.00" arrivalLane="60_4way_23to4way_24_0" arrivalPos="85.60" arrivalSpeed="11.26" duration="41.00" routeLength="280.50" waitingTime="8.00" waitingCount="1" stopTime="0.00" timeLoss="18.28" rerouteNo="0" devices="tripinfo_119" vType="DEFAULT_VEHTYPE" speedFactor="0.90" vaporized=""/>
    <tripinfo id="136" depart="44.00" departLane="74_4way_39to4way_32_0" departPos="5.10" departSpeed="0.00" departDelay="0.83" arrival="81.00" arrivalLane="69_4way_31to4way_30_0" arrivalPos="85.60" arrivalSpeed="13.79" duration="37.00" routeLength="275.13" waitingTime="5.00" waitingCount="1" stopTime="0.00" timeLoss="16.05" rerouteNo="0" devices="tripinfo_136" vType="DEFAULT_VEHTYPE" speedFactor="1.01" vaporized=""/>
    <tripinfo id="149" depart="48.00" departLane="21_3way_3to4way_10_0" departPos="5.10" departSpeed="0.00" departDelay="0.71" arrival="84.00" arrivalLane="6_4way_12to3way_13_0" arrivalPos="85.60" arrivalSpeed="12.46" duration="36.00" routeLength="375.13" waitingTime="0.00" waitingCount="0" stopTime="0.00" timeLoss="5.80" rerouteNo="0" devices="tripinfo_149" vType="DEFAULT_VEHTYPE" speedFactor="0.95" vaporized=""/>
    <tripinfo id="141" depart="45.00" departLane="61_4way_30to4way_23_0" departPos="5.10" departSpeed="0.00" departDelay="0.25" arrival="85.00" arrivalLane="58_4way_23to4way_22_0" arrivalPos="85.60" arrivalSpeed="13.22" duration="40.00" routeLength="175.13" waitingTime="15.00" waitingCount="1" stopTime="0.00" timeLoss="26.09" rerouteNo="0" devices="tripinfo_141" vType="DEFAULT_VEHTYPE" speedFactor="0.99" vaporized=""/>
    <tripinfo id="201" depart="64.00" departLane="40_3way_7to4way_8_0" departPos="5.10" departSpeed="0.00" departDelay="0.20" arrival="85.00" arrivalLane="3_4way_8to3way_1_0" arrivalPos="85.60" arrivalSpeed="12.97" duration="21.00" routeLength="175.13" waitingTime="0.00" waitingCount="0" stopTime="0.00" timeLoss="5.95" rerouteNo="0" devices="tripinfo_201" vType="DEFAULT_VEHTYPE" speedFactor="0.93" vaporized=""/>
    <tripinfo id="75" depart="24.00" departLane="52_4way_9to4way_16_0" departPos="5.10" departSpeed="0.00" departDelay="0.19" arrival="88.00" arrivalLane="53_4way_17to4way_18_0" arrivalPos="85.60" arrivalSpeed="14.80" duration="64.00" routeLength="275.13" waitingTime="34.00" waitingCount="1" stopTime="0.00" timeLoss="44.73" rerouteNo="0" devices="tripinfo_75" vType="DEFAULT_VEHTYPE" speedFactor="1.09" vaporized=""/>
    <tripinfo id="86" depart="28.00" departLane="11_3way_2to4way_9_0" departPos="5.10" departSpeed="0.00" departDelay="0.70" arrival="88.00" arrivalLane="50_4way_16to4way_17_0" arrivalPos="85.60" arrivalSpeed="13.75" duration="60.00" routeLength="275.13" waitingTime="28.00" waitingCount="1" stopTime="0.00" timeLoss="40.43" rerouteNo="0" devices="tripinfo_86" vType="DEFAULT_VEHTYPE" speedFactor="1.06" vaporized=""/>
    <tripinfo id="131" depart="42.00" departLane="49_4way_15to4way_8_0" departPos="5.10" departSpeed="0.00" departDelay="0.42" arrival="88.00" arrivalLane="10_3way_2to3way_3_0" arrivalPos="85.60" arrivalSpeed="10.23" duration="46.00" routeLength="380.29" waitingTime="3.00" waitingCount="1" stopTime="0.00" timeLoss="11.22" rerouteNo="0" devices="tripinfo_131" vType="DEFAULT_VEHTYPE" speedFactor="0.82" vaporized=""/>
    <tripinfo id="51" depart="17.00" departLane="66_4way_26to4way_33_0" departPos="5.10" departSpeed="0.00" departDelay="0.81" arrival="89.00" arrivalLane="38_4way_40to3way_47_0" arrivalPos="85.60" arrivalSpeed="9.44" duration="72.00" routeLength="280.50" waitingTime="36.00" waitingCount="1" stopTime="0.00" timeLoss="44.67" rerouteNo="0" devices="tripinfo_51" vType="DEFAULT_VEHTYPE" speedFactor="0.74" vaporized=""/>
    <tripinfo id="65" depart="21.00" departLane="70_4way_37to4way_30_0" departPos="5.10" departSpeed="0.00" departDelay="0.37" arrival="89.00" arrivalLane="52_4way_16to4way_9_0" arrivalPos="85.60" arrivalSpeed="8.04" duration="68.00" routeLength="380.50" waitingTime="29.00" waitingCount="1" stopTime="0.00" timeLoss="44.85" rerouteNo="0" devices="tripinfo_65" vType="DEFAULT_VEHTYPE" speedFactor="1.20" vaporized=""/>
    <tripinfo id="154" depart="49.00" departLane="80_4way_9to4way_8_0" departPos="5.10" departSpeed="0.00" departDelay="0.12" arrival="89.00" arrivalLane="8_3way_7to3way_14_0" arrivalPos="85.60" arrivalSpeed="11.63" duration="40.00" routeLength="275.13" waitingTime="6.00" waitingCount="1" stopTime="0.00" timeLoss="15.33" rerouteNo="0" devices="tripinfo_154" vType="DEFAULT_VEHTYPE" speedFactor="0.84" vaporized=""/>
    <tripinfo id="203" depart="65.00" departLane="36_3way_46to3way_47_0" departPos="5.10" departSpeed="0.00" departDelay="0.57" arrival="90.00" arrivalLane="28_3way_47to3way_41_0" arrivalPos="182.40" arrivalSpeed="12.00" duration="25.00" routeLength="277.30" waitingTime="0.00" waitingCount="0" stopTime="0.00" timeLoss="3.34" rerouteNo="0" devices="tripinfo_203" vType="DEFAULT_VEHTYPE" speedFactor="0.95" vaporized=""/>
    <tripinfo id="134" depart="43.00" departLane="66_4way_26to4way_33_0" departPos="5.10" departSpeed="0.00" departDelay="0.47" arrival="91.00" arrivalLane="38_4way_40to3way_47_0" arrivalPos="85.60" arrivalSpeed="13.60" duration="48.00" routeLength="280.50" waitingTime="12.00" waitingCount="1" stopTime="0.00" timeLoss="27.14" rerouteNo="0" devices="tripinfo_134" vType="DEFAULT_VEHTYPE" speedFactor="1.00" vaporized=""/>
    <tripinfo id="200" depart="64.00" departLane="11_3way_2to4way_9_0" departPos="5.10" departSpeed="0.00" departDelay="0.52" arrival="92.00" arrivalLane="51_4way_16to4way_23_0" arrivalPos="85.60" arrivalSpeed="12.79" duration="28.00" routeLength="280.50" waitingTime="0.00" waitingCount="0" stopTime="0.00" timeLoss="6.45" rerouteNo="0" devices="tripinfo_200" vType="DEFAULT_VEHTYPE" speedFactor="0.96" vaporized=""/>
    <tripinfo id="176" depart="56.00" departLane="6_4way_12to3way_13_0" departPos="5.10" departSpeed="0.00" departDelay="0.14" arrival="93.00" arrivalLane="16_3way_27to3way_34_0" arrivalPos="85.60" arrivalSpeed="13.20" duration="37.00" routeLength="380.29" waitingTime="0.00" waitingCount="0" stopTime="0.00" timeLoss="7.72" rerouteNo="0" devices="tripinfo_176" vType="DEFAULT_VEHTYPE" speedFactor="0.97" vaporized=""/>
    <tripinfo id="37" depart="12.00" departLane="7_3way_14to3way_21_0" departPos="5.10" departSpeed="0.00" departDelay="0.26" arrival="94.00" arrivalLane="24_3way_35to3way_43_0" arrivalPos="182.40" arrivalSpeed="13.37" duration="82.00" routeLength="477.30" waitingTime="37.00" waitingCount="1" stopTime="0.00" timeLoss="47.04" rerouteNo="0" devices="tripinfo_37" vType="DEFAULT_VEHTYPE" speedFactor="0.99" vaporized=""/>
    <tripinfo id="115" depart="37.00" departLane="40_4way_8to3way_7_0" departPos="5.10" departSpeed="0.00" departDelay="0.50" arrival="94.00" arrivalLane="14_3way_21to3way_28_0" arrivalPos="85.60" arrivalSpeed="12.35" duration="57.00" routeLength="375.13" waitingTime="17.00" waitingCount="1" stopTime="0.00" timeLoss="26.39" rerouteNo="0" devices="tripinfo_115" vType="DEFAULT_VEHTYPE" speedFactor="0.92" vaporized=""/>
    <tripinfo id="190" depart="61.00" departLane="14_3way_21to3way_28_0" departPos="5.10" departSpeed="0.00" departDelay="0.69" arrival="94.00" arrivalLane="67_4way_29to4way_30_0" arrivalPos="85.60" arrivalSpeed="14.66" duration="33.00" routeLength="275.13" waitingTime="2.00" waitingCount="1" stopTime="0.00" timeLoss="13.87" rerouteNo="0" devices="tripinfo_190" vType="DEFAULT_VEHTYPE" speedFactor="1.08" vaporized=""/>
    <tripinfo id="214" depart="68.00" departLane="35_3way_45to4way_38_0" departPos="5.10" departSpeed="0.00" departDelay="0.08" arrival="94.00" arrivalLane="76_4way_37to4way_36_0" arrivalPos="85.60" arrivalSpeed="13.67" duration="26.00" routeLength="275.13" waitingTime="0.00" waitingCount="0" stopTime="0.00" timeLoss="5.27" rerouteNo="0" devices="tripinfo_214" vType="DEFAULT_VEHTYPE" speedFactor="1.00" vaporized=""/>
    <tripinfo id="20" depart="7.00" departLane="4_3way_13to3way_20_0" departPos="5.10" departSpeed="0.00" departDelay="0.65" arrival="95.00" arrivalLane="22_3way_34to3way_41_0" arrivalPos="85.60" arrivalSpeed="12.37" duration="88.00" routeLength="380.50" waitingTime="47.00" waitingCount="1" stopTime="0.00" timeLoss="56.78" rerouteNo="0" devices="tripinfo_20" vType="DEFAULT_VEHTYPE" speedFactor="0.89" vaporized=""/>
    <tripinfo id="23" depart="8.00" departLane="39_3way_5to4way_12_0" departPos="5.10" departSpeed="0.00" departDelay="0.70" arrival="95.00" arrivalLane="75_4way_33to4way_40_0" arrivalPos="85.60" arrivalSpeed="11.64" duration="87.00" routeLength="480.50" waitingTime="38.00" waitingCount="1" stopTime="0.00" timeLoss="46.82" rerouteNo="0" devices="tripinfo_23" vType="DEFAULT_VEHTYPE" speedFactor="0.87" vaporized=""/>
    <tripinfo id="199" depart="64.00" departLane="36_3way_47to3way_46_0" departPos="5.10" departSpeed="0.00" departDelay="0.84" arrival="95.00" arrivalLane="30_3way_44to3way_43_0" arrivalPos="85.60" arrivalSpeed="16.17" duration="31.00" routeLength="380.50" waitingTime="0.00" waitingCount="0" stopTime="0.00" timeLoss="7.53" rerouteNo="0" devices="tripinfo_199" vType="DEFAULT_VEHTYPE" speedFactor="1.20" vaporized=""/>