<?xml version="1.0" encoding="UTF-8"?>

<!-- generated on 2023-11-28 20:44:48 by Eclipse SUMO sumo Version 1.12.0
<configuration xmlns:xsi="http://www.w3.org/2001/XMLSchema-instance" xsi:noNamespaceSchemaLocation="http://sumo.dlr.de/xsd/sumoConfiguration.xsd">

    <input>
        <net-file value="../../data_generation/sapporo_HY.net.xml"/>
        <route-files value="../../data_generation/sapporo_HY.rou.xml"/>
    </input>

    <output>
        <tripinfo-output value="tripinfo.xml"/>
        <statistic-output value="statistic.xml"/>
    </output>

    <time>
        <begin value="0"/>
        <end value="3600"/>
    </time>

    <processing>
        <time-to-teleport value="-1"/>
    </processing>

    <traci_server>
        <remote-port value="49239"/>
    </traci_server>

    <random_number>
        <seed value="4"/>
    </random_number>

    <gui_only>
        <gui-settings-file value="../../data_generation/view_HY_0402.xml"/>
    </gui_only>

</configuration>
-->

<tripinfos xmlns:xsi="http://www.w3.org/2001/XMLSchema-instance" xsi:noNamespaceSchemaLocation="http://sumo.dlr.de/xsd/tripinfo_file.xsd">
    <tripinfo id="7" depart="4.00" departLane="12_3way_B10to3way_A09_0" departPos="5.10" departSpeed="0.00" departDelay="0.08" arrival="20.00" arrivalLane="12_3way_B10to3way_A09_0" arrivalPos="182.40" arrivalSpeed="14.01" duration="16.00" routeLength="177.30" waitingTime="0.00" waitingCount="0" stopTime="0.00" timeLoss="3.62" rerouteNo="0" devices="tripinfo_7" vType="DEFAULT_VEHTYPE" speedFactor="1.09" vaporized=""/>
    <tripinfo id="15" depart="9.00" departLane="107_4way_F02to4way_G02_0" departPos="5.10" departSpeed="0.00" departDelay="0.60" arrival="27.00" arrivalLane="55_4way_G02to3way_H02_0" arrivalPos="85.60" arrivalSpeed="11.83" duration="18.00" routeLength="180.50" waitingTime="0.00" waitingCount="0" stopTime="0.00" timeLoss="2.80" rerouteNo="0" devices="tripinfo_15" vType="DEFAULT_VEHTYPE" speedFactor="0.87" vaporized=""/>
    <tripinfo id="18" depart="11.00" departLane="96_4way_E05to4way_F05_0" departPos="5.10" departSpeed="0.00" departDelay="0.92" arrival="28.00" arrivalLane="113_4way_F05to4way_G05_0" arrivalPos="85.60" arrivalSpeed="13.48" duration="17.00" routeLength="180.50" waitingTime="0.00" waitingCount="0" stopTime="0.00" timeLoss="3.90" rerouteNo="0" devices="tripinfo_18" vType="DEFAULT_VEHTYPE" speedFactor="1.05" vaporized=""/>
    <tripinfo id="19" depart="11.00" departLane="20_3way_C03to3way_C04_0" departPos="5.10" departSpeed="0.00" departDelay="0.36" arrival="31.00" arrivalLane="22_3way_C04to4way_B04_0" arrivalPos="85.60" arrivalSpeed="12.89" duration="20.00" routeLength="175.13" waitingTime="0.00" waitingCount="0" stopTime="0.00" timeLoss="5.26" rerouteNo="0" devices="tripinfo_19" vType="DEFAULT_VEHTYPE" speedFactor="0.98" vaporized=""/>
    <tripinfo id="51" depart="29.00" departLane="83_4way_D06to4way_D07_0" departPos="5.10" departSpeed="0.00" departDelay="0.44" arrival="38.00" arrivalLane="83_4way_D06to4way_D07_0" arrivalPos="85.60" arrivalSpeed="14.48" duration="9.00" routeLength="80.50" waitingTime="0.00" waitingCount="0" stopTime="0.00" timeLoss="3.63" rerouteNo="0" devices="tripinfo_51" vType="DEFAULT_VEHTYPE" speedFactor="1.10" vaporized=""/>
    <tripinfo id="65" depart="37.00" departLane="83_4way_D07to4way_D06_0" departPos="5.10" departSpeed="0.00" departDelay="0.60" arrival="46.00" arrivalLane="83_4way_D07to4way_D06_0" arrivalPos="85.60" arrivalSpeed="13.97" duration="9.00" routeLength="80.50" waitingTime="0.00" waitingCount="0" stopTime="0.00" timeLoss="2.98" rerouteNo="0" devices="tripinfo_65" vType="DEFAULT_VEHTYPE" speedFactor="1.02" vaporized=""/>
    <tripinfo id="25" depart="14.00" departLane="50_3way_G10to3way_H09_0" departPos="5.10" departSpeed="0.00" departDelay="0.00" arrival="50.00" arrivalLane="62_3way_H07to3way_H06_0" arrivalPos="85.60" arrivalSpeed="15.16" duration="36.00" routeLength="483.70" waitingTime="0.00" waitingCount="0" stopTime="0.00" timeLoss="4.23" rerouteNo="0" devices="tripinfo_25" vType="DEFAULT_VEHTYPE" speedFactor="1.11" vaporized=""/>
    <tripinfo id="73" depart="41.00" departLane="47_4way_F09to3way_F10_0" departPos="5.10" departSpeed="0.00" departDelay="0.12" arrival="51.00" arrivalLane="47_4way_F09to3way_F10_0" arrivalPos="85.60" arrivalSpeed="13.70" duration="10.00" routeLength="80.50" waitingTime="0.00" waitingCount="0" stopTime="0.00" timeLoss="3.84" rerouteNo="0" devices="tripinfo_73" vType="DEFAULT_VEHTYPE" speedFactor="1.02" vaporized=""/>
    <tripinfo id="49" depart="28.00" departLane="127_4way_G07to4way_G08_0" departPos="5.10" departSpeed="0.00" departDelay="0.56" arrival="53.00" arrivalLane="102_4way_F08to4way_E08_0" arrivalPos="85.60" arrivalSpeed="14.57" duration="25.00" routeLength="275.13" waitingTime="0.00" waitingCount="0" stopTime="0.00" timeLoss="5.90" rerouteNo="0" devices="tripinfo_49" vType="DEFAULT_VEHTYPE" speedFactor="1.07" vaporized=""/>
    <tripinfo id="77" depart="44.00" departLane="11_3way_A08to4way_B08_0" departPos="5.10" departSpeed="0.00" departDelay="0.88" arrival="53.00" arrivalLane="11_3way_A08to4way_B08_0" arrivalPos="85.60" arrivalSpeed="15.99" duration="9.00" routeLength="80.50" waitingTime="0.00" waitingCount="0" stopTime="0.00" timeLoss="3.77" rerouteNo="0" devices="tripinfo_77" vType="DEFAULT_VEHTYPE" speedFactor="1.22" vaporized=""/>
    <tripinfo id="80" depart="45.00" departLane="119_4way_F08to4way_G08_0" departPos="5.10" departSpeed="0.00" departDelay="0.20" arrival="55.00" arrivalLane="119_4way_F08to4way_G08_0" arrivalPos="85.60" arrivalSpeed="12.40" duration="10.00" routeLength="80.50" waitingTime="0.00" waitingCount="0" stopTime="0.00" timeLoss="3.26" rerouteNo="0" devices="tripinfo_80" vType="DEFAULT_VEHTYPE" speedFactor="0.98" vaporized=""/>
    <tripinfo id="81" depart="46.00" departLane="3_4way_B04to3way_A04_0" departPos="5.10" departSpeed="0.00" departDelay="0.64" arrival="55.00" arrivalLane="3_4way_B04to3way_A04_0" arrivalPos="85.60" arrivalSpeed="12.88" duration="9.00" routeLength="80.50" waitingTime="0.00" waitingCount="0" stopTime="0.00" timeLoss="2.62" rerouteNo="0" devices="tripinfo_81" vType="DEFAULT_VEHTYPE" speedFactor="0.99" vaporized=""/>
    <tripinfo id="76" depart="43.00" departLane="34_3way_D05to4way_E05_0" departPos="5.10" departSpeed="0.00" departDelay="0.44" arrival="61.00" arrivalLane="96_4way_E05to4way_F05_0" arrivalPos="85.60" arrivalSpeed="12.58" duration="18.00" routeLength="180.50" waitingTime="0.00" waitingCount="0" stopTime="0.00" timeLoss="3.80" rerouteNo="0" devices="tripinfo_76" vType="DEFAULT_VEHTYPE" speedFactor="0.97" vaporized=""/>
    <tripinfo id="79" depart="45.00" departLane="103_4way_F09to4way_E09_0" departPos="5.10" departSpeed="0.00" departDelay="0.76" arrival="72.00" arrivalLane="99_4way_E08to4way_E07_0" arrivalPos="85.60" arrivalSpeed="12.17" duration="27.00" routeLength="275.13" waitingTime="0.00" waitingCount="0" stopTime="0.00" timeLoss="5.14" rerouteNo="0" devices="tripinfo_79" vType="DEFAULT_VEHTYPE" speedFactor="0.96" vaporized=""/>
    <tripinfo id="85" depart="48.00" departLane="61_3way_H05to4way_G05_0" departPos="5.10" departSpeed="0.00" departDelay="0.40" arrival="73.00" arrivalLane="110_4way_F05to4way_F04_0" arrivalPos="85.60" arrivalSpeed="15.59" duration="25.00" routeLength="275.13" waitingTime="0.00" waitingCount="0" stopTime="0.00" timeLoss="6.49" rerouteNo="0" devices="tripinfo_85" vType="DEFAULT_VEHTYPE" speedFactor="1.13" vaporized=""/>
    <tripinfo id="72" depart="41.00" departLane="120_4way_G09to4way_F09_0" departPos="5.10" departSpeed="0.00" departDelay="0.68" arrival="77.00" arrivalLane="99_4way_E08to4way_E07_0" arrivalPos="85.60" arrivalSpeed="13.06" duration="36.00" routeLength="375.13" waitingTime="0.00" waitingCount="0" stopTime="0.00" timeLoss="7.41" rerouteNo="0" devices="tripinfo_72" vType="DEFAULT_VEHTYPE" speedFactor="0.98" vaporized=""/>
    <tripinfo id="116" depart="65.00" departLane="24_3way_C06to4way_B06_0" departPos="5.10" departSpeed="0.00" departDelay="0.04" arrival="85.00" arrivalLane="17_4way_B06to3way_B05_0" arrivalPos="85.60" arrivalSpeed="12.48" duration="20.00" routeLength="175.13" waitingTime="0.00" waitingCount="0" stopTime="0.00" timeLoss="5.34" rerouteNo="0" devices="tripinfo_116" vType="DEFAULT_VEHTYPE" speedFactor="0.94" vaporized=""/>
    <tripinfo id="94" depart="53.00" departLane="61_4way_G05to3way_H05_0" departPos="5.10" departSpeed="0.00" departDelay="0.36" arrival="88.00" arrivalLane="64_3way_H07to3way_H08_0" arrivalPos="85.60" arrivalSpeed="12.66" duration="35.00" routeLength="375.13" waitingTime="0.00" waitingCount="0" stopTime="0.00" timeLoss="5.61" rerouteNo="0" devices="tripinfo_94" vType="DEFAULT_VEHTYPE" speedFactor="0.97" vaporized=""/>
    <tripinfo id="147" depart="83.00" departLane="127_4way_G07to4way_G08_0" departPos="5.10" departSpeed="0.00" departDelay="0.68" arrival="92.00" arrivalLane="127_4way_G07to4way_G08_0" arrivalPos="85.60" arrivalSpeed="12.85" duration="9.00" routeLength="80.50" waitingTime="0.00" waitingCount="0" stopTime="0.00" timeLoss="2.89" rerouteNo="0" devices="tripinfo_147" vType="DEFAULT_VEHTYPE" speedFactor="0.96" vaporized=""/>
    <tripinfo id="118" depart="67.00" departLane="36_3way_D10to4way_D09_0" departPos="5.10" departSpeed="0.00" departDelay="0.92" arrival="94.00" arrivalLane="103_4way_E09to4way_F09_0" arrivalPos="85.60" arrivalSpeed="13.08" duration="27.00" routeLength="275.13" waitingTime="0.00" waitingCount="0" stopTime="0.00" timeLoss="6.32" rerouteNo="0" devices="tripinfo_118" vType="DEFAULT_VEHTYPE" speedFactor="0.98" vaporized=""/>
    <tripinfo id="157" depart="88.00" departLane="102_4way_E08to4way_F08_0" departPos="5.10" departSpeed="0.00" departDelay="0.08" arrival="98.00" arrivalLane="102_4way_E08to4way_F08_0" arrivalPos="85.60" arrivalSpeed="12.47" duration="10.00" routeLength="80.50" waitingTime="0.00" waitingCount="0" stopTime="0.00" timeLoss="3.19" rerouteNo="0" devices="tripinfo_157" vType="DEFAULT_VEHTYPE" speedFactor="0.95" vaporized=""/>
    <tripinfo id="148" depart="83.00" departLane="107_4way_F02to4way_G02_0" departPos="5.10" departSpeed="0.00" departDelay="0.12" arrival="101.00" arrivalLane="122_4way_G02to4way_G03_0" arrivalPos="85.60" arrivalSpeed="15.71" duration="18.00" routeLength="175.13" waitingTime="0.00" waitingCount="0" stopTime="0.00" timeLoss="5.83" rerouteNo="0" devices="tripinfo_148" vType="DEFAULT_VEHTYPE" speedFactor="1.14" vaporized=""/>
    <tripinfo id="165" depart="93.00" departLane="106_4way_F02to4way_F03_0" departPos="5.10" departSpeed="0.00" departDelay="0.60" arrival="102.00" arrivalLane="106_4way_F02to4way_F03_0" arrivalPos="85.60" arrivalSpeed="16.72" duration="9.00" routeLength="80.50" waitingTime="0.00" waitingCount="0" stopTime="0.00" timeLoss="4.27" rerouteNo="0" devices="tripinfo_165" vType="DEFAULT_VEHTYPE" speedFactor="1.24" vaporized=""/>
    <tripinfo id="154" depart="87.00" departLane="12_3way_B10to3way_A09_0" departPos="5.10" departSpeed="0.00" departDelay="0.76" arrival="107.00" arrivalLane="12_3way_B10to3way_A09_0" arrivalPos="182.40" arrivalSpeed="10.43" duration="20.00" routeLength="177.30" waitingTime="0.00" waitingCount="0" stopTime="0.00" timeLoss="3.13" rerouteNo="0" devices="tripinfo_154" vType="DEFAULT_VEHTYPE" speedFactor="0.79" vaporized=""/>
    <tripinfo id="174" depart="98.00" departLane="74_4way_C09to4way_B09_0" departPos="5.10" departSpeed="0.00" departDelay="0.56" arrival="108.00" arrivalLane="74_4way_C09to4way_B09_0" arrivalPos="85.60" arrivalSpeed="15.39" duration="10.00" routeLength="80.50" waitingTime="0.00" waitingCount="0" stopTime="0.00" timeLoss="4.43" rerouteNo="0" devices="tripinfo_174" vType="DEFAULT_VEHTYPE" speedFactor="1.16" vaporized=""/>
    <tripinfo id="179" depart="101.00" departLane="23_3way_C04to4way_D04_0" departPos="5.10" departSpeed="0.00" departDelay="0.76" arrival="111.00" arrivalLane="23_3way_C04to4way_D04_0" arrivalPos="85.60" arrivalSpeed="11.32" duration="10.00" routeLength="80.50" waitingTime="0.00" waitingCount="0" stopTime="0.00" timeLoss="2.73" rerouteNo="0" devices="tripinfo_179" vType="DEFAULT_VEHTYPE" speedFactor="0.86" vaporized=""/>
    <tripinfo id="184" depart="104.00" departLane="90_4way_E01to4way_F01_0" departPos="5.10" departSpeed="0.00" departDelay="0.96" arrival="114.00" arrivalLane="90_4way_E01to4way_F01_0" arrivalPos="85.60" arrivalSpeed="12.70" duration="10.00" routeLength="80.50" waitingTime="0.00" waitingCount="0" stopTime="0.00" timeLoss="3.30" rerouteNo="0" devices="tripinfo_184" vType="DEFAULT_VEHTYPE" speedFactor="0.97" vaporized=""/>
    <tripinfo id="171" depart="96.00" departLane="37_3way_F00to3way_E00_0" departPos="5.10" departSpeed="0.00" departDelay="0.24" arrival="119.00" arrivalLane="29_3way_E00to3way_D01_0" arrivalPos="188.80" arrivalSpeed="14.33" duration="23.00" routeLength="283.70" waitingTime="0.00" waitingCount="0" stopTime="0.00" timeLoss="3.68" rerouteNo="0" devices="tripinfo_171" vType="DEFAULT_VEHTYPE" speedFactor="1.06" vaporized=""/>
    <tripinfo id="207" depart="116.00" departLane="128_4way_G09to4way_G08_0" departPos="5.10" departSpeed="0.00" departDelay="0.08" arrival="126.00" arrivalLane="128_4way_G09to4way_G08_0" arrivalPos="85.60" arrivalSpeed="10.90" duration="10.00" routeLength="80.50" waitingTime="0.00" waitingCount="0" stopTime="0.00" timeLoss="2.92" rerouteNo="0" devices="tripinfo_207" vType="DEFAULT_VEHTYPE" speedFactor="0.88" vaporized=""/>
    <tripinfo id="193" depart="109.00" departLane="13_4way_B09to3way_A09_0" departPos="5.10" departSpeed="0.00" departDelay="0.92" arrival="127.00" arrivalLane="10_3way_A09to3way_A08_0" arrivalPos="85.60" arrivalSpeed="13.73" duration="18.00" routeLength="175.13" waitingTime="0.00" waitingCount="0" stopTime="0.00" timeLoss="5.64" rerouteNo="0" devices="tripinfo_193" vType="DEFAULT_VEHTYPE" speedFactor="1.06" vaporized=""/>
    <tripinfo id="100" depart="56.00" departLane="8_3way_A08to3way_A07_0" departPos="5.10" departSpeed="0.00" departDelay="0.00" arrival="130.00" arrivalLane="4_3way_A06to3way_A05_0" arrivalPos="85.60" arrivalSpeed="5.81" duration="74.00" routeLength="280.50" waitingTime="43.00" waitingCount="1" stopTime="0.00" timeLoss="52.80" rerouteNo="0" devices="tripinfo_100" vType="DEFAULT_VEHTYPE" speedFactor="0.96" vaporized=""/>
    <tripinfo id="206" depart="116.00" departLane="36_4way_D09to3way_D10_0" departPos="5.10" departSpeed="0.00" departDelay="0.64" arrival="130.00" arrivalLane="36_4way_D09to3way_D10_0" arrivalPos="85.60" arrivalSpeed="4.96" duration="14.00" routeLength="80.50" waitingTime="0.00" waitingCount="0" stopTime="0.00" timeLoss="8.22" rerouteNo="0" devices="tripinfo_206" vType="DEFAULT_VEHTYPE" speedFactor="1.02" vaporized=""/>
    <tripinfo id="101" depart="57.00" departLane="23_3way_C04to4way_D04_0" departPos="5.10" departSpeed="0.00" departDelay="0.44" arrival="131.00" arrivalLane="82_4way_D04to4way_E04_0" arrivalPos="85.60" arrivalSpeed="6.17" duration="74.00" routeLength="180.50" waitingTime="53.00" waitingCount="1" stopTime="0.00" timeLoss="61.40" rerouteNo="0" devices="tripinfo_101" vType="DEFAULT_VEHTYPE" speedFactor="1.06" vaporized=""/>
    <tripinfo id="96" depart="54.00" departLane="56_3way_H03to3way_H04_0" departPos="5.10" departSpeed="0.00" departDelay="0.24" arrival="133.00" arrivalLane="58_3way_H04to3way_H05_0" arrivalPos="85.60" arrivalSpeed="6.92" duration="79.00" routeLength="180.50" waitingTime="58.00" waitingCount="1" stopTime="0.00" timeLoss="66.34" rerouteNo="0" devices="tripinfo_96" vType="DEFAULT_VEHTYPE" speedFactor="1.03" vaporized=""/>
    <tripinfo id="103" depart="58.00" departLane="62_3way_H06to3way_H07_0" departPos="5.10" departSpeed="0.00" departDelay="0.32" arrival="133.00" arrivalLane="68_3way_H09to4way_G09_0" arrivalPos="85.60" arrivalSpeed="7.67" duration="75.00" routeLength="375.13" waitingTime="36.00" waitingCount="1" stopTime="0.00" timeLoss="46.44" rerouteNo="0" devices="tripinfo_103" vType="DEFAULT_VEHTYPE" speedFactor="0.98" vaporized=""/>
    <tripinfo id="155" depart="87.00" departLane="59_3way_H04to4way_G04_0" departPos="5.10" departSpeed="0.00" departDelay="0.20" arrival="133.00" arrivalLane="94_4way_F04to4way_E04_0" arrivalPos="85.60" arrivalSpeed="8.25" duration="46.00" routeLength="280.50" waitingTime="11.00" waitingCount="1" stopTime="0.00" timeLoss="20.63" rerouteNo="0" devices="tripinfo_155" vType="DEFAULT_VEHTYPE" speedFactor="0.81" vaporized=""/>
    <tripinfo id="161" depart="91.00" departLane="95_4way_E06to4way_E05_0" departPos="5.10" departSpeed="0.00" departDelay="0.84" arrival="135.00" arrivalLane="95_4way_E06to4way_E05_0" arrivalPos="85.60" arrivalSpeed="9.44" duration="44.00" routeLength="80.50" waitingTime="29.00" waitingCount="1" stopTime="0.00" timeLoss="37.92" rerouteNo="0" devices="tripinfo_161" vType="DEFAULT_VEHTYPE" speedFactor="1.00" vaporized=""/>
    <tripinfo id="70" depart="42.00" departLane="95_4way_E06to4way_E05_0" departPos="5.10" departSpeed="0.00" departDelay="2.80" arrival="136.00" arrivalLane="96_4way_E05to4way_F05_0" arrivalPos="85.60" arrivalSpeed="14.31" duration="94.00" routeLength="175.13" waitingTime="73.00" waitingCount="1" stopTime="0.00" timeLoss="81.45" rerouteNo="0" devices="tripinfo_70" vType="DEFAULT_VEHTYPE" speedFactor="1.07" vaporized=""/>
    <tripinfo id="5" depart="3.00" departLane="81_4way_D03to4way_E03_0" departPos="5.10" departSpeed="0.00" departDelay="0.20" arrival="137.00" arrivalLane="108_4way_F03to4way_F04_0" arrivalPos="85.60" arrivalSpeed="12.04" duration="134.00" routeLength="275.13" waitingTime="102.00" waitingCount="1" stopTime="0.00" timeLoss="111.09" rerouteNo="0" devices="tripinfo_5" vType="DEFAULT_VEHTYPE" speedFactor="0.90" vaporized=""/>
    <tripinfo id="16" depart="9.00" departLane="32_3way_D05to4way_D04_0" departPos="5.10" departSpeed="0.00" departDelay="0.04" arrival="137.00" arrivalLane="23_4way_D04to3way_C04_0" arrivalPos="85.60" arrivalSpeed="13.46" duration="128.00" routeLength="180.30" waitingTime="105.00" waitingCount="1" stopTime="0.00" timeLoss="114.42" rerouteNo="0" devices="tripinfo_16" vType="DEFAULT_VEHTYPE" speedFactor="1.04" vaporized=""/>
    <tripinfo id="44" depart="25.00" departLane="99_4way_E07to4way_E08_0" departPos="5.10" departSpeed="0.00" departDelay="0.36" arrival="137.00" arrivalLane="43_4way_E09to3way_E10_0" arrivalPos="85.60" arrivalSpeed="12.32" duration="112.00" routeLength="280.50" waitingTime="81.00" waitingCount="1" stopTime="0.00" timeLoss="89.78" rerouteNo="0" devices="tripinfo_44" vType="DEFAULT_VEHTYPE" speedFactor="0.93" vaporized=""/>
    <tripinfo id="52" depart="30.00" departLane="125_4way_G06to4way_G05_0" departPos="5.10" departSpeed="0.00" departDelay="0.88" arrival="137.00" arrivalLane="61_4way_G05to3way_H05_0" arrivalPos="85.60" arrivalSpeed="13.31" duration="107.00" routeLength="175.13" waitingTime="83.00" waitingCount="1" stopTime="0.00" timeLoss="93.21" rerouteNo="0" devices="tripinfo_52" vType="DEFAULT_VEHTYPE" speedFactor="1.01" vaporized=""/>
    <tripinfo id="74" depart="42.00" departLane="89_4way_D09to4way_E09_0" departPos="5.10" departSpeed="0.00" departDelay="0.56" arrival="137.00" arrivalLane="51_4way_G09to3way_G10_0" arrivalPos="85.60" arrivalSpeed="13.07" duration="95.00" routeLength="375.13" waitingTime="57.00" waitingCount="1" stopTime="0.00" timeLoss="65.80" rerouteNo="0" devices="tripinfo_74" vType="DEFAULT_VEHTYPE" speedFactor="0.96" vaporized=""/>
    <tripinfo id="63" depart="36.00" departLane="74_4way_B09to4way_C09_0" departPos="5.10" departSpeed="0.00" departDelay="0.72" arrival="138.00" arrivalLane="79_4way_C09to4way_D09_0" arrivalPos="85.60" arrivalSpeed="14.42" duration="102.00" routeLength="180.50" waitingTime="79.00" waitingCount="1" stopTime="0.00" timeLoss="88.75" rerouteNo="0" devices="tripinfo_63" vType="DEFAULT_VEHTYPE" speedFactor="1.05" vaporized=""/>
    <tripinfo id="136" depart="77.00" departLane="111_4way_F04to4way_G04_0" departPos="5.10" departSpeed="0.00" departDelay="0.84" arrival="138.00" arrivalLane="124_4way_G04to4way_G05_0" arrivalPos="85.60" arrivalSpeed="8.76" duration="61.00" routeLength="175.13" waitingTime="35.00" waitingCount="1" stopTime="0.00" timeLoss="46.86" rerouteNo="0" devices="tripinfo_136" vType="DEFAULT_VEHTYPE" speedFactor="0.97" vaporized=""/>
    <tripinfo id="95" depart="54.00" departLane="78_4way_C08to4way_D08_0" departPos="5.10" departSpeed="0.00" departDelay="0.80" arrival="139.00" arrivalLane="101_4way_E08to4way_E09_0" arrivalPos="85.60" arrivalSpeed="12.95" duration="85.00" routeLength="275.13" waitingTime="55.00" waitingCount="1" stopTime="0.00" timeLoss="63.59" rerouteNo="0" devices="tripinfo_95" vType="DEFAULT_VEHTYPE" speedFactor="0.97" vaporized=""/>
    <tripinfo id="60" depart="34.00" departLane="87_4way_D08to4way_D09_0" departPos="5.10" departSpeed="0.00" departDelay="0.40" arrival="140.00" arrivalLane="74_4way_C09to4way_B09_0" arrivalPos="85.60" arrivalSpeed="10.76" duration="106.00" routeLength="275.13" waitingTime="69.00" waitingCount="1" stopTime="0.00" timeLoss="81.64" rerouteNo="0" devices="tripinfo_60" vType="DEFAULT_VEHTYPE" speedFactor="0.86" vaporized=""/>
    <tripinfo id="130" depart="73.00" departLane="108_4way_F03to4way_F04_0" departPos="5.10" departSpeed="0.00" departDelay="0.20" arrival="140.00" arrivalLane="94_4way_F04to4way_E04_0" arrivalPos="85.60" arrivalSpeed="12.95" duration="67.00" routeLength="175.13" waitingTime="44.00" waitingCount="1" stopTime="0.00" timeLoss="51.85" rerouteNo="0" devices="tripinfo_130" vType="DEFAULT_VEHTYPE" speedFactor="0.94" vaporized=""/>
    <tripinfo id="135" depart="76.00" departLane="63_4way_G06to3way_H06_0" departPos="5.10" departSpeed="0.00" departDelay="0.40" arrival="140.00" arrivalLane="60_3way_H06to3way_H05_0" arrivalPos="85.60" arrivalSpeed="12.48" duration="64.00" routeLength="180.29" waitingTime="39.00" waitingCount="1" stopTime="0.00" timeLoss="48.28" rerouteNo="0" devices="tripinfo_135" vType="DEFAULT_VEHTYPE" speedFactor="0.91" vaporized=""/>
    <tripinfo id="169" depart="95.00" departLane="6_3way_A07to3way_A06_0" departPos="5.10" departSpeed="0.00" departDelay="0.36" arrival="140.00" arrivalLane="24_4way_B06to3way_C06_0" arrivalPos="85.60" arrivalSpeed="11.51" duration="45.00" routeLength="275.13" waitingTime="12.00" waitingCount="1" stopTime="0.00" timeLoss="25.01" rerouteNo="0" devices="tripinfo_169" vType="DEFAULT_VEHTYPE" speedFactor="1.02" vaporized=""/>
    <tripinfo id="175" depart="98.00" departLane="34_4way_E05to3way_D05_0" departPos="5.10" departSpeed="0.00" departDelay="0.00" arrival="141.00" arrivalLane="80_4way_D04to4way_D03_0" arrivalPos="85.60" arrivalSpeed="10.50" duration="43.00" routeLength="275.13" waitingTime="7.00" waitingCount="1" stopTime="0.00" timeLoss="16.12" rerouteNo="0" devices="tripinfo_175" vType="DEFAULT_VEHTYPE" speedFactor="0.79" vaporized=""/>
    <tripinfo id="126" depart="71.00" departLane="83_4way_D07to4way_D06_0" departPos="5.10" departSpeed="0.00" departDelay="0.44" arrival="143.00" arrivalLane="32_3way_D05to4way_D04_0" arrivalPos="85.60" arrivalSpeed="11.22" duration="72.00" routeLength="280.50" waitingTime="37.00" waitingCount="1" stopTime="0.00" timeLoss="46.69" rerouteNo="0" devices="tripinfo_126" vType="DEFAULT_VEHTYPE" speedFactor="0.82" vaporized=""/>
    <tripinfo id="132" depart="74.00" departLane="75_4way_C07to4way_C08_0" departPos="5.10" departSpeed="0.00" departDelay="0.08" arrival="143.00" arrivalLane="11_4way_B08to3way_A08_0" arrivalPos="85.60" arrivalSpeed="15.41" duration="69.00" routeLength="275.13" waitingTime="41.00" waitingCount="1" stopTime="0.00" timeLoss="50.19" rerouteNo="0" devices="tripinfo_132" vType="DEFAULT_VEHTYPE" speedFactor="1.12" vaporized=""/>
    <tripinfo id="78" depart="44.00" departLane="23_3way_C04to4way_D04_0" departPos="5.10" departSpeed="0.00" departDelay="0.32" arrival="146.00" arrivalLane="95_4way_E05to4way_E06_0" arrivalPos="85.60" arrivalSpeed="12.51" duration="102.00" routeLength="375.13" waitingTime="62.00" waitingCount="1" stopTime="0.00" timeLoss="71.01" rerouteNo="0" devices="tripinfo_78" vType="DEFAULT_VEHTYPE" speedFactor="0.90" vaporized=""/>
    <tripinfo id="28" depart="16.00" departLane="27_3way_C10to3way_D10_0" departPos="5.10" departSpeed="0.00" departDelay="0.32" arrival="147.00" arrivalLane="46_3way_F10to3way_G10_0" arrivalPos="85.60" arrivalSpeed="11.78" duration="131.00" routeLength="380.50" waitingTime="90.00" waitingCount="1" stopTime="0.00" timeLoss="98.73" rerouteNo="0" devices="tripinfo_28" vType="DEFAULT_VEHTYPE" speedFactor="0.87" vaporized=""/>
    <tripinfo id="66" depart="37.00" departLane="91_4way_E03to4way_E04_0" departPos="5.10" departSpeed="0.00" departDelay="0.04" arrival="147.00" arrivalLane="84_4way_E06to4way_D06_0" arrivalPos="85.60" arrivalSpeed="13.69" duration="110.00" routeLength="375.13" waitingTime="70.00" waitingCount="1" stopTime="0.00" timeLoss="82.04" rerouteNo="0" devices="tripinfo_66" vType="DEFAULT_VEHTYPE" speedFactor="1.03" vaporized=""/>
    <tripinfo id="46" depart="26.00" departLane="4_3way_A05to3way_A06_0" departPos="5.10" departSpeed="0.00" departDelay="0.24" arrival="148.00" arrivalLane="76_4way_C07to4way_D07_0" arrivalPos="85.60" arrivalSpeed="12.41" duration="122.00" routeLength="480.30" waitingTime="71.00" waitingCount="1" stopTime="0.00" timeLoss="85.42" rerouteNo="0" devices="tripinfo_46" vType="DEFAULT_VEHTYPE" speedFactor="0.98" vaporized=""/>
    <tripinfo id="59" depart="34.00" departLane="41_3way_E02to4way_F02_0" departPos="5.10" departSpeed="0.00" departDelay="0.96" arrival="148.00" arrivalLane="125_4way_G05to4way_G06_0" arrivalPos="85.60" arrivalSpeed="10.04" duration="114.00" routeLength="575.13" waitingTime="56.00" waitingCount="1" stopTime="0.00" timeLoss="72.09" rerouteNo="0" devices="tripinfo_59" vType="DEFAULT_VEHTYPE" speedFactor="1.01" vaporized=""/>
    <tripinfo id="107" depart="60.00" departLane="114_4way_F06to4way_F07_0" departPos="5.10" departSpeed="0.00" departDelay="0.08" arrival="150.00" arrivalLane="86_4way_E07to4way_D07_0" arrivalPos="85.60" arrivalSpeed="11.23" duration="90.00" routeLength="275.13" waitingTime="54.00" waitingCount="1" stopTime="0.00" timeLoss="70.42" rerouteNo="0" devices="tripinfo_107" vType="DEFAULT_VEHTYPE" speedFactor="1.06" vaporized=""/>
    <tripinfo id="120" depart="68.00" departLane="71_4way_B07to4way_C07_0" departPos="5.10" departSpeed="0.00" departDelay="0.80" arrival="150.00" arrivalLane="86_4way_D07to4way_E07_0" arrivalPos="85.60" arrivalSpeed="13.41" duration="82.00" routeLength="280.50" waitingTime="50.00" waitingCount="1" stopTime="0.00" timeLoss="62.42" rerouteNo="0" devices="tripinfo_120" vType="DEFAULT_VEHTYPE" speedFactor="1.06" vaporized=""/>
    <tripinfo id="182" depart="102.00" departLane="93_4way_E05to4way_E04_0" departPos="5.10" departSpeed="0.00" departDelay="0.08" arrival="150.00" arrivalLane="109_4way_F03to4way_G03_0" arrivalPos="85.60" arrivalSpeed="12.70" duration="48.00" routeLength="375.13" waitingTime="7.00" waitingCount="1" stopTime="0.00" timeLoss="18.73" rerouteNo="0" devices="tripinfo_182" vType="DEFAULT_VEHTYPE" speedFactor="0.96" vaporized=""/>
    <tripinfo id="102" depart="58.00" departLane="107_4way_G02to4way_F02_0" departPos="5.10" departSpeed="0.00" departDelay="0.88" arrival="151.00" arrivalLane="81_4way_E03to4way_D03_0" arrivalPos="85.60" arrivalSpeed="14.58" duration="93.00" routeLength="374.92" waitingTime="53.00" waitingCount="1" stopTime="0.00" timeLoss="67.35" rerouteNo="0" devices="tripinfo_102" vType="DEFAULT_VEHTYPE" speedFactor="1.14" vaporized=""/>
    <tripinfo id="172" depart="97.00" departLane="117_4way_G07to4way_F07_0" departPos="5.10" departSpeed="0.00" departDelay="0.68" arrival="152.00" arrivalLane="83_4way_D07to4way_D06_0" arrivalPos="85.60" arrivalSpeed="13.04" duration="55.00" routeLength="375.13" waitingTime="15.00" waitingCount="1" stopTime="0.00" timeLoss="27.23" rerouteNo="0" devices="tripinfo_172" vType="DEFAULT_VEHTYPE" speedFactor="1.01" vaporized=""/>
    <tripinfo id="93" depart="53.00" departLane="62_3way_H06to3way_H07_0" departPos="5.10" departSpeed="0.00" departDelay="0.92" arrival="153.00" arrivalLane="71_4way_C07to4way_B07_0" arrivalPos="85.60" arrivalSpeed="13.70" duration="100.00" routeLength="675.13" waitingTime="42.00" waitingCount="1" stopTime="0.00" timeLoss="53.51" rerouteNo="0" devices="tripinfo_93" vType="DEFAULT_VEHTYPE" speedFactor="1.08" vaporized=""/>
    <tripinfo id="88" depart="50.00" departLane="36_4way_D09to3way_D10_0" departPos="5.10" departSpeed="0.00" departDelay="0.72" arrival="154.00" arrivalLane="46_3way_F10to3way_G10_0" arrivalPos="85.60" arrivalSpeed="12.74" duration="104.00" routeLength="380.29" waitingTime="64.00" waitingCount="1" stopTime="0.00" timeLoss="73.52" rerouteNo="0" devices="tripinfo_88" vType="DEFAULT_VEHTYPE" speedFactor="0.93" vaporized=""/>
    <tripinfo id="187" depart="105.00" departLane="83_4way_D07to4way_D06_0" departPos="5.10" departSpeed="0.00" departDelay="0.28" arrival="155.00" arrivalLane="23_4way_D04to3way_C04_0" arrivalPos="85.60" arrivalSpeed="12.31" duration="50.00" routeLength="380.30" waitingTime="4.00" waitingCount="1" stopTime="0.00" timeLoss="19.02" rerouteNo="0" devices="tripinfo_187" vType="DEFAULT_VEHTYPE" speedFactor="0.93" vaporized=""/>
    <tripinfo id="69" depart="39.00" departLane="107_4way_G02to4way_F02_0" departPos="5.10" departSpeed="0.00" departDelay="0.36" arrival="156.00" arrivalLane="21_4way_D03to3way_C03_0" arrivalPos="85.60" arrivalSpeed="13.93" duration="117.00" routeLength="474.92" waitingTime="70.00" waitingCount="1" stopTime="0.00" timeLoss="81.80" rerouteNo="0" devices="tripinfo_69" vType="DEFAULT_VEHTYPE" speedFactor="1.01" vaporized=""/>